 Entering Gaussian System, Link 0=g09
 Initial command:
 /software/g09/l1.exe /home/tmp/g16/Gau-3960355.inp -scrdir=/home/tmp/g16/
 Entering Link 1 = /software/g09/l1.exe PID=   3960358.
  
 Copyright (c) 1988,1990,1992,1993,1995,1998,2003,2009, Gaussian, Inc.
                  All Rights Reserved.
  
 This is part of the Gaussian(R) 09 program.  It is based on
 the Gaussian(R) 03 system (copyright 2003, Gaussian, Inc.),
 the Gaussian(R) 98 system (copyright 1998, Gaussian, Inc.),
 the Gaussian(R) 94 system (copyright 1995, Gaussian, Inc.),
 the Gaussian 92(TM) system (copyright 1992, Gaussian, Inc.),
 the Gaussian 90(TM) system (copyright 1990, Gaussian, Inc.),
 the Gaussian 88(TM) system (copyright 1988, Gaussian, Inc.),
 the Gaussian 86(TM) system (copyright 1986, Carnegie Mellon
 University), and the Gaussian 82(TM) system (copyright 1983,
 Carnegie Mellon University). Gaussian is a federally registered
 trademark of Gaussian, Inc.
  
 This software contains proprietary and confidential information,
 including trade secrets, belonging to Gaussian, Inc.
  
 This software is provided under written license and may be
 used, copied, transmitted, or stored only in accord with that
 written license.
  
 The following legend is applicable only to US Government
 contracts under FAR:
  
                    RESTRICTED RIGHTS LEGEND
  
 Use, reproduction and disclosure by the US Government is
 subject to restrictions as set forth in subparagraphs (a)
 and (c) of the Commercial Computer Software - Restricted
 Rights clause in FAR 52.227-19.
  
 Gaussian, Inc.
 340 Quinnipiac St., Bldg. 40, Wallingford CT 06492
  
  
 ---------------------------------------------------------------
 Warning -- This program may not be used in any manner that
 competes with the business of Gaussian, Inc. or will provide
 assistance to any competitor of Gaussian, Inc.  The licensee
 of this program is prohibited from giving any competitor of
 Gaussian, Inc. access to this program.  By using this program,
 the user acknowledges that Gaussian, Inc. is engaged in the
 business of creating and licensing software in the field of
 computational chemistry and represents and warrants to the
 licensee that it is not a competitor of Gaussian, Inc. and that
 it will not use this program in any manner prohibited above.
 ---------------------------------------------------------------
  

 Cite this work as:
 Gaussian 09, Revision A.01,
 M. J. Frisch, G. W. Trucks, H. B. Schlegel, G. E. Scuseria, 
 M. A. Robb, J. R. Cheeseman, G. Scalmani, V. Barone, B. Mennucci, 
 G. A. Petersson, H. Nakatsuji, M. Caricato, X. Li, H. P. Hratchian, 
 A. F. Izmaylov, J. Bloino, G. Zheng, J. L. Sonnenberg, M. Hada, 
 M. Ehara, K. Toyota, R. Fukuda, J. Hasegawa, M. Ishida, T. Nakajima, 
 Y. Honda, O. Kitao, H. Nakai, T. Vreven, J. A. Montgomery, Jr., 
 J. E. Peralta, F. Ogliaro, M. Bearpark, J. J. Heyd, E. Brothers, 
 K. N. Kudin, V. N. Staroverov, R. Kobayashi, J. Normand, 
 K. Raghavachari, A. Rendell, J. C. Burant, S. S. Iyengar, J. Tomasi, 
 M. Cossi, N. Rega, J. M. Millam, M. Klene, J. E. Knox, J. B. Cross, 
 V. Bakken, C. Adamo, J. Jaramillo, R. Gomperts, R. E. Stratmann, 
 O. Yazyev, A. J. Austin, R. Cammi, C. Pomelli, J. W. Ochterski, 
 R. L. Martin, K. Morokuma, V. G. Zakrzewski, G. A. Voth, 
 P. Salvador, J. J. Dannenberg, S. Dapprich, A. D. Daniels, 
 O. Farkas, J. B. Foresman, J. V. Ortiz, J. Cioslowski, 
 and D. J. Fox, Gaussian, Inc., Wallingford CT, 2009.
 
 ******************************************
 Gaussian 09:  EM64L-G09RevA.01  8-May-2009
                17-Mar-2022 
 ******************************************
 %nprocshared=8
 Will use up to    8 processors via shared memory.
 %chk=CCC.chk
 ---------------------------------------------------------------------
 # opt freq=hinderedrotor M062X/6-311++g(d,p) press=0.987 symm=loose
 ---------------------------------------------------------------------
 1/14=-1,18=20,19=15,26=3,38=1,112=-986920/1,3;
 2/9=110,12=2,17=4,18=3,40=1/2;
 3/5=4,6=6,7=1111,11=2,16=1,25=1,30=1,71=1,74=-55/1,2,3;
 4//1;
 5/5=2,38=5/2;
 6/7=2,8=2,9=2,10=2,28=1/1;
 7//1,2,3,16;
 1/14=-1,18=20,19=15/3(2);
 2/9=110/2;
 99/8=20/99;
 2/9=110/2;
 3/5=4,6=6,7=1111,11=2,16=1,25=1,30=1,71=1,74=-55/1,2,3;
 4/5=5,16=3/1;
 5/5=2,38=5/2;
 7//1,2,3,16;
 1/14=-1,18=20,19=15/3(-5);
 2/9=110/2;
 6/7=2,8=2,9=2,10=2,19=2,28=1/1;
 99/8=20,9=1/99;
 -----
 CCC_1
 -----
 Symbolic Z-matrix:
 Charge =  0 Multiplicity = 1
 C                    -1.26604  -0.26131   0. 
 C                     0.        0.59287   0. 
 C                     1.26604  -0.26131   0. 
 H                    -2.16836   0.3536   0. 
 H                    -1.29756  -0.9061   -0.88244 
 H                    -1.29756  -0.9061    0.88244 
 H                     0.        1.24784   0.8763 
 H                     0.        1.24784  -0.87629 
 H                     2.16836   0.3536    0. 
 H                     1.29756  -0.9061   -0.88244 
 H                     1.29756  -0.9061    0.88244 
 

 GradGradGradGradGradGradGradGradGradGradGradGradGradGradGradGradGradGrad
 Berny optimization.
 Initialization pass.
                           ----------------------------
                           !    Initial Parameters    !
                           ! (Angstroms and Degrees)  !
 --------------------------                            --------------------------
 ! Name  Definition              Value          Derivative Info.                !
 --------------------------------------------------------------------------------
 ! R1    R(1,2)                  1.5272         estimate D2E/DX2                !
 ! R2    R(1,4)                  1.0919         estimate D2E/DX2                !
 ! R3    R(1,5)                  1.0934         estimate D2E/DX2                !
 ! R4    R(1,6)                  1.0934         estimate D2E/DX2                !
 ! R5    R(2,3)                  1.5272         estimate D2E/DX2                !
 ! R6    R(2,7)                  1.094          estimate D2E/DX2                !
 ! R7    R(2,8)                  1.094          estimate D2E/DX2                !
 ! R8    R(3,9)                  1.0919         estimate D2E/DX2                !
 ! R9    R(3,10)                 1.0934         estimate D2E/DX2                !
 ! R10   R(3,11)                 1.0934         estimate D2E/DX2                !
 ! A1    A(2,1,4)              111.7198         estimate D2E/DX2                !
 ! A2    A(2,1,5)              110.7154         estimate D2E/DX2                !
 ! A3    A(2,1,6)              110.7155         estimate D2E/DX2                !
 ! A4    A(4,1,5)              107.9559         estimate D2E/DX2                !
 ! A5    A(4,1,6)              107.9558         estimate D2E/DX2                !
 ! A6    A(5,1,6)              107.6239         estimate D2E/DX2                !
 ! A7    A(1,2,3)              111.9864         estimate D2E/DX2                !
 ! A8    A(1,2,7)              109.5626         estimate D2E/DX2                !
 ! A9    A(1,2,8)              109.5627         estimate D2E/DX2                !
 ! A10   A(3,2,7)              109.5626         estimate D2E/DX2                !
 ! A11   A(3,2,8)              109.5627         estimate D2E/DX2                !
 ! A12   A(7,2,8)              106.4489         estimate D2E/DX2                !
 ! A13   A(2,3,9)              111.7199         estimate D2E/DX2                !
 ! A14   A(2,3,10)             110.7155         estimate D2E/DX2                !
 ! A15   A(2,3,11)             110.7155         estimate D2E/DX2                !
 ! A16   A(9,3,10)             107.9559         estimate D2E/DX2                !
 ! A17   A(9,3,11)             107.9558         estimate D2E/DX2                !
 ! A18   A(10,3,11)            107.6238         estimate D2E/DX2                !
 ! D1    D(4,1,2,3)           -179.9999         estimate D2E/DX2                !
 ! D2    D(4,1,2,7)             58.2179         estimate D2E/DX2                !
 ! D3    D(4,1,2,8)            -58.2175         estimate D2E/DX2                !
 ! D4    D(5,1,2,3)            -59.6402         estimate D2E/DX2                !
 ! D5    D(5,1,2,7)            178.5776         estimate D2E/DX2                !
 ! D6    D(5,1,2,8)             62.1422         estimate D2E/DX2                !
 ! D7    D(6,1,2,3)             59.6403         estimate D2E/DX2                !
 ! D8    D(6,1,2,7)            -62.1418         estimate D2E/DX2                !
 ! D9    D(6,1,2,8)           -178.5773         estimate D2E/DX2                !
 ! D10   D(1,2,3,9)           -179.9999         estimate D2E/DX2                !
 ! D11   D(1,2,3,10)            59.6403         estimate D2E/DX2                !
 ! D12   D(1,2,3,11)           -59.6402         estimate D2E/DX2                !
 ! D13   D(7,2,3,9)            -58.2178         estimate D2E/DX2                !
 ! D14   D(7,2,3,10)          -178.5775         estimate D2E/DX2                !
 ! D15   D(7,2,3,11)            62.142          estimate D2E/DX2                !
 ! D16   D(8,2,3,9)             58.2177         estimate D2E/DX2                !
 ! D17   D(8,2,3,10)           -62.1421         estimate D2E/DX2                !
 ! D18   D(8,2,3,11)           178.5774         estimate D2E/DX2                !
 --------------------------------------------------------------------------------
 Trust Radius=3.00D-01 FncErr=1.00D-07 GrdErr=1.00D-06
 Number of steps in this run=  56 maximum allowed number of steps= 100.
 GradGradGradGradGradGradGradGradGradGradGradGradGradGradGradGradGradGrad

                          Input orientation:                          
 ---------------------------------------------------------------------
 Center     Atomic      Atomic             Coordinates (Angstroms)
 Number     Number       Type             X           Y           Z
 ---------------------------------------------------------------------
      1          6           0       -1.266044   -0.261307    0.000000
      2          6           0        0.000000    0.592869    0.000000
      3          6           0        1.266044   -0.261307    0.000000
      4          1           0       -2.168362    0.353598   -0.000001
      5          1           0       -1.297559   -0.906102   -0.882438
      6          1           0       -1.297561   -0.906102    0.882438
      7          1           0        0.000000    1.247836    0.876297
      8          1           0        0.000000    1.247841   -0.876294
      9          1           0        2.168363    0.353597    0.000002
     10          1           0        1.297560   -0.906101   -0.882439
     11          1           0        1.297560   -0.906104    0.882437
 ---------------------------------------------------------------------
                    Distance matrix (angstroms):
                    1          2          3          4          5
     1  C    0.000000
     2  C    1.527247   0.000000
     3  C    2.532088   1.527247   0.000000
     4  H    1.091918   2.181523   3.489019   0.000000
     5  H    1.093367   2.170085   2.786847   1.767438   0.000000
     6  H    1.093367   2.170087   2.786849   1.767438   1.764876
     7  H    2.155986   1.094019   2.155986   2.503868   3.068592
     8  H    2.155988   1.094020   2.155988   2.503868   2.514591
     9  H    3.489020   2.181525   1.091919   4.336725   3.791854
    10  H    2.786848   2.170086   1.093367   3.791854   2.595119
    11  H    2.786848   2.170087   1.093367   3.791855   3.138380
                    6          7          8          9         10
     6  H    0.000000
     7  H    2.514588   0.000000
     8  H    3.068595   1.752591   0.000000
     9  H    3.791855   2.503868   2.503870   0.000000
    10  H    3.138382   3.068592   2.514591   1.767439   0.000000
    11  H    2.595121   2.514589   3.068595   1.767438   1.764876
                   11
    11  H    0.000000
 Stoichiometry    C3H8
 Framework group  C2V[C2(C),SGV(H2),SGV'(C2H2),X(H4)]
 Deg. of freedom     9
 Full point group                 C2V     NOp   4
 Largest Abelian subgroup         C2V     NOp   4
 Largest concise Abelian subgroup C2V     NOp   4
                         Standard orientation:                         
 ---------------------------------------------------------------------
 Center     Atomic      Atomic             Coordinates (Angstroms)
 Number     Number       Type             X           Y           Z
 ---------------------------------------------------------------------
      1          6           0        1.266044    0.000000   -0.261307
      2          6           0        0.000000    0.000000    0.592869
      3          6           0       -1.266044    0.000000   -0.261307
      4          1           0        2.168362    0.000000    0.353598
      5          1           0        1.297559   -0.882438   -0.906102
      6          1           0        1.297559    0.882438   -0.906102
      7          1           0        0.000000    0.876297    1.247836
      8          1           0        0.000000   -0.876297    1.247836
      9          1           0       -2.168362    0.000000    0.353598
     10          1           0       -1.297559   -0.882438   -0.906102
     11          1           0       -1.297559    0.882438   -0.906102
 ---------------------------------------------------------------------
 Rotational constants (GHZ):     29.3142593      8.5051579      7.5108647
 Standard basis: 6-311++G(d,p) (5D, 7F)
 There are    46 symmetry adapted basis functions of A1  symmetry.
 There are    16 symmetry adapted basis functions of A2  symmetry.
 There are    35 symmetry adapted basis functions of B1  symmetry.
 There are    25 symmetry adapted basis functions of B2  symmetry.
 Integral buffers will be    131072 words long.
 Raffenetti 2 integral format.
 Two-electron integral symmetry is turned on.
   122 basis functions,   180 primitive gaussians,   125 cartesian basis functions
    13 alpha electrons       13 beta electrons
       nuclear repulsion energy        82.6393293476 Hartrees.
 NAtoms=   11 NActive=   11 NUniq=    5 SFac= 3.00D+00 NAtFMM=   80 NAOKFM=F Big=F
 One-electron integrals computed using PRISM.
 NBasis=   122 RedAO= T  NBF=    46    16    35    25
 NBsUse=   122 1.00D-06 NBFU=    46    16    35    25
 Harris functional with IExCor= 1009 diagonalized for initial guess.
 ExpMin= 3.60D-02 ExpMax= 4.56D+03 ExpMxC= 6.82D+02 IAcc=3 IRadAn=         0 AccDes= 0.00D+00
 HarFok:  IExCor= 1009 AccDes= 0.00D+00 IRadAn=         0 IDoV= 1
 ScaDFX=  1.000000  1.000000  1.000000  1.000000
 FoFCou: FMM=F IPFlag=           0 FMFlag=      100000 FMFlg1=           0
         NFxFlg=           0 DoJE=T BraDBF=F KetDBF=T FulRan=T
         Omega=  0.000000  0.000000  1.000000  0.000000  0.000000 ICntrl=     500 IOpCl=  0
         NMat0=    1 NMatS0=    1 NMatT0=    0 NMatD0=    1 NMtDS0=    0 NMtDT0=    0
         I1Cent=           4 NGrid=           0.
 Petite list used in FoFCou.
 Initial guess orbital symmetries:
       Occupied  (B1) (A1) (A1) (A1) (B1) (A1) (B2) (A1) (B1) (A2)
                 (B1) (A1) (B2)
       Virtual   (A1) (B1) (A1) (B2) (A1) (B2) (B1) (A1) (A2) (A1)
                 (B1) (A2) (B1) (A1) (B2) (A1) (A1) (B1) (B2) (B1)
                 (B2) (B2) (A1) (B1) (A2) (A1) (B1) (A1) (B1) (A1)
                 (A1) (A2) (B2) (B1) (A1) (B2) (B1) (A1) (B2) (B1)
                 (B2) (A2) (A1) (B1) (A1) (A1) (B1) (A1) (A1) (A2)
                 (B1) (A1) (B1) (B2) (A2) (A1) (B2) (A2) (A1) (B1)
                 (A2) (B2) (B2) (B1) (A1) (B2) (A1) (B1) (A2) (B2)
                 (B1) (A1) (A2) (B1) (A1) (B1) (A1) (B2) (B1) (A1)
                 (A2) (A1) (B2) (B1) (B1) (A1) (A2) (B2) (A1) (B2)
                 (A2) (A1) (B1) (B2) (A1) (B1) (A1) (B1) (A1) (A2)
                 (B1) (B2) (A1) (B2) (A1) (B1) (A1) (B1) (A1)
 The electronic state of the initial guess is 1-A1.
 Requested convergence on RMS density matrix=1.00D-08 within 128 cycles.
 Requested convergence on MAX density matrix=1.00D-06.
 Requested convergence on             energy=1.00D-06.
 No special actions if energy rises.
 Keep R1 ints in memory in canonical form, NReq=32174197.
 PrsmSu:  requested number of processors reduced to:   2 ShMem   1 Linda.
 CalDSu:  requested number of processors reduced to:   2 ShMem   1 Linda.
 CalDSu:  requested number of processors reduced to:   2 ShMem   1 Linda.
 CalDSu:  requested number of processors reduced to:   2 ShMem   1 Linda.
 CalDSu:  requested number of processors reduced to:   2 ShMem   1 Linda.
 CalDSu:  requested number of processors reduced to:   2 ShMem   1 Linda.
 CalDSu:  requested number of processors reduced to:   2 ShMem   1 Linda.
 CalDSu:  requested number of processors reduced to:   2 ShMem   1 Linda.
 CalDSu:  requested number of processors reduced to:   2 ShMem   1 Linda.
 CalDSu:  requested number of processors reduced to:   2 ShMem   1 Linda.
 CalDSu:  requested number of processors reduced to:   2 ShMem   1 Linda.
 SCF Done:  E(RM062X) =  -119.100670081     A.U. after   10 cycles
             Convg  =    0.1369D-08             -V/T =  2.0049

 **********************************************************************

            Population analysis using the SCF density.

 **********************************************************************

 Orbital symmetries:
       Occupied  (A1) (B1) (A1) (A1) (B1) (A1) (B2) (A1) (B1) (A2)
                 (A1) (B1) (B2)
       Virtual   (A1) (B1) (A1) (B2) (A1) (B1) (B2) (A2) (A1) (A1)
                 (B1) (A2) (B1) (B2) (A1) (B1) (A1) (B2) (A1) (B1)
                 (B2) (A1) (B2) (A2) (B1) (A1) (A1) (B1) (B1) (A1)
                 (A1) (A2) (B2) (B1) (A1) (B2) (B1) (A1) (B2) (B2)
                 (B1) (B1) (A2) (A1) (A1) (A1) (B1) (A1) (A1) (B1)
                 (A2) (A1) (B1) (B2) (A2) (A1) (B2) (A2) (A1) (A2)
                 (B2) (B1) (B2) (B1) (A1) (B2) (A2) (A1) (B1) (B2)
                 (B1) (A1) (A2) (B1) (A1) (B1) (A1) (B2) (B1) (A1)
                 (A2) (A1) (B2) (B1) (A2) (A1) (B1) (B2) (A1) (B2)
                 (B1) (A1) (B2) (A2) (A1) (B1) (A1) (B1) (A1) (A2)
                 (B1) (B2) (A1) (B2) (A1) (B1) (A1) (B1) (A1)
 The electronic state is 1-A1.
 Alpha  occ. eigenvalues --  -10.52859 -10.51989 -10.51987  -0.87869  -0.76972
 Alpha  occ. eigenvalues --   -0.66615  -0.52753  -0.50463  -0.46120  -0.44309
 Alpha  occ. eigenvalues --   -0.39534  -0.39494  -0.38645
 Alpha virt. eigenvalues --    0.00158   0.01963   0.02117   0.02351   0.04704
 Alpha virt. eigenvalues --    0.05414   0.05535   0.06195   0.08257   0.10559
 Alpha virt. eigenvalues --    0.11694   0.12458   0.13099   0.13421   0.13965
 Alpha virt. eigenvalues --    0.15305   0.15318   0.15759   0.17982   0.18353
 Alpha virt. eigenvalues --    0.21100   0.21874   0.24223   0.24435   0.26113
 Alpha virt. eigenvalues --    0.27630   0.31755   0.31995   0.33118   0.35709
 Alpha virt. eigenvalues --    0.43984   0.44795   0.47910   0.50589   0.51179
 Alpha virt. eigenvalues --    0.57512   0.58986   0.68472   0.70406   0.70602
 Alpha virt. eigenvalues --    0.70933   0.71215   0.71911   0.72382   0.74562
 Alpha virt. eigenvalues --    0.79194   0.80880   0.87351   0.96346   1.00258
 Alpha virt. eigenvalues --    1.02003   1.05101   1.22893   1.30739   1.31897
 Alpha virt. eigenvalues --    1.47362   1.51466   1.51627   1.59062   1.59333
 Alpha virt. eigenvalues --    1.59881   1.60868   1.62389   1.63503   1.68631
 Alpha virt. eigenvalues --    1.74096   1.77267   1.77456   1.77738   1.84279
 Alpha virt. eigenvalues --    1.84310   1.95886   2.05422   2.10730   2.12015
 Alpha virt. eigenvalues --    2.14340   2.20889   2.26684   2.35997   2.38267
 Alpha virt. eigenvalues --    2.41109   2.49051   2.52670   2.53148   2.55357
 Alpha virt. eigenvalues --    2.56638   2.57327   2.59199   2.66874   2.72833
 Alpha virt. eigenvalues --    2.74367   2.74781   2.75434   2.76102   2.81692
 Alpha virt. eigenvalues --    2.94095   2.97706   3.14201   3.37753   3.82855
 Alpha virt. eigenvalues --    3.84069   3.86933   3.87520   3.88683   4.18356
 Alpha virt. eigenvalues --    4.35092  23.95622  24.05706  24.06682
          Condensed to atoms (all electrons):
              1          2          3          4          5          6
     1  C    5.221234   0.224226  -0.053568   0.397165   0.406852   0.406852
     2  C    0.224226   5.041317   0.224226  -0.043970  -0.026326  -0.026326
     3  C   -0.053568   0.224226   5.221234   0.014358  -0.014602  -0.014602
     4  H    0.397165  -0.043970   0.014358   0.555586  -0.031728  -0.031728
     5  H    0.406852  -0.026326  -0.014602  -0.031728   0.579300  -0.057498
     6  H    0.406852  -0.026326  -0.014602  -0.031728  -0.057498   0.579300
     7  H   -0.056219   0.461934  -0.056219  -0.003371   0.010016  -0.014658
     8  H   -0.056219   0.461934  -0.056219  -0.003371  -0.014658   0.010016
     9  H    0.014358  -0.043970   0.397165  -0.001503  -0.000495  -0.000495
    10  H   -0.014602  -0.026326   0.406852  -0.000495   0.005072  -0.000379
    11  H   -0.014602  -0.026326   0.406852  -0.000495  -0.000379   0.005072
              7          8          9         10         11
     1  C   -0.056219  -0.056219   0.014358  -0.014602  -0.014602
     2  C    0.461934   0.461934  -0.043970  -0.026326  -0.026326
     3  C   -0.056219  -0.056219   0.397165   0.406852   0.406852
     4  H   -0.003371  -0.003371  -0.001503  -0.000495  -0.000495
     5  H    0.010016  -0.014658  -0.000495   0.005072  -0.000379
     6  H   -0.014658   0.010016  -0.000495  -0.000379   0.005072
     7  H    0.578019  -0.058717  -0.003371   0.010016  -0.014658
     8  H   -0.058717   0.578019  -0.003371  -0.014658   0.010016
     9  H   -0.003371  -0.003371   0.555586  -0.031728  -0.031728
    10  H    0.010016  -0.014658  -0.031728   0.579300  -0.057498
    11  H   -0.014658   0.010016  -0.031728  -0.057498   0.579300
 Mulliken atomic charges:
              1
     1  C   -0.475475
     2  C   -0.220390
     3  C   -0.475475
     4  H    0.149552
     5  H    0.144445
     6  H    0.144445
     7  H    0.147227
     8  H    0.147227
     9  H    0.149552
    10  H    0.144445
    11  H    0.144445
 Sum of Mulliken atomic charges =   0.00000
 Mulliken charges with hydrogens summed into heavy atoms:
              1
     1  C   -0.037032
     2  C    0.074064
     3  C   -0.037032
 Sum of Mulliken charges with hydrogens summed into heavy atoms =   0.00000
 Electronic spatial extent (au):  <R**2>=            226.2040
 Charge=              0.0000 electrons
 Dipole moment (field-independent basis, Debye):
    X=              0.0000    Y=              0.0000    Z=              0.0882  Tot=              0.0882
 Quadrupole moment (field-independent basis, Debye-Ang):
   XX=            -22.3506   YY=            -21.5869   ZZ=            -22.0762
   XY=              0.0000   XZ=              0.0000   YZ=              0.0000
 Traceless Quadrupole moment (field-independent basis, Debye-Ang):
   XX=             -0.3460   YY=              0.4177   ZZ=             -0.0717
   XY=              0.0000   XZ=              0.0000   YZ=              0.0000
 Octapole moment (field-independent basis, Debye-Ang**2):
  XXX=              0.0000  YYY=              0.0000  ZZZ=              0.4501  XYY=              0.0000
  XXY=              0.0000  XXZ=              1.6094  XZZ=              0.0000  YZZ=              0.0000
  YYZ=             -0.5027  XYZ=              0.0000
 Hexadecapole moment (field-independent basis, Debye-Ang**3):
 XXXX=           -203.7328 YYYY=            -45.1170 ZZZZ=            -73.7616 XXXY=              0.0000
 XXXZ=              0.0000 YYYX=              0.0000 YYYZ=              0.0000 ZZZX=              0.0000
 ZZZY=              0.0000 XXYY=            -42.6749 XXZZ=            -45.9769 YYZZ=            -17.4338
 XXYZ=              0.0000 YYXZ=              0.0000 ZZXY=              0.0000
 N-N= 8.263932934756D+01 E-N=-4.403984623179D+02  KE= 1.185160813106D+02
 Symmetry A1   KE= 7.334459355057D+01
 Symmetry A2   KE= 2.027667391437D+00
 Symmetry B1   KE= 3.928192572935D+01
 Symmetry B2   KE= 3.861894639288D+00
 Calling FoFJK, ICntrl=      2127 FMM=F ISym2X=1 I1Cent= 0 IOpClX= 0 NMat=1 NMatS=1 NMatT=0.
 ***** Axes restored to original set *****
 -------------------------------------------------------------------
 Center     Atomic                   Forces (Hartrees/Bohr)
 Number     Number              X              Y              Z
 -------------------------------------------------------------------
      1        6           0.000033380    0.000125029    0.000000000
      2        6           0.000000000   -0.000179635    0.000000000
      3        6          -0.000033380    0.000125029    0.000000000
      4        1           0.000000694   -0.000051328    0.000000000
      5        1          -0.000025643   -0.000012675    0.000007892
      6        1          -0.000025643   -0.000012675   -0.000007892
      7        1           0.000000000    0.000041466    0.000013170
      8        1           0.000000000    0.000041466   -0.000013170
      9        1          -0.000000694   -0.000051328    0.000000000
     10        1           0.000025643   -0.000012675    0.000007892
     11        1           0.000025643   -0.000012675   -0.000007892
 -------------------------------------------------------------------
 Cartesian Forces:  Max     0.000179635 RMS     0.000048723

 GradGradGradGradGradGradGradGradGradGradGradGradGradGradGradGradGradGrad
 Berny optimization.
 Internal  Forces:  Max     0.000075139 RMS     0.000024687
 Search for a local minimum.
 Step number   1 out of a maximum of   56
 All quantities printed in internal units (Hartrees-Bohrs-Radians)
 Mixed Optimization -- En-DIIS/RFO-DIIS
 Second derivative matrix not updated -- first step.
     Eigenvalues ---    0.00406   0.00406   0.03617   0.04873   0.05474
     Eigenvalues ---    0.05474   0.05605   0.05605   0.08255   0.12140
     Eigenvalues ---    0.16000   0.16000   0.16000   0.16000   0.16000
     Eigenvalues ---    0.16000   0.21887   0.29679   0.29679   0.34352
     Eigenvalues ---    0.34352   0.34426   0.34426   0.34426   0.34426
     Eigenvalues ---    0.34592   0.345921000.000001000.000001000.00000
     Eigenvalues --- 1000.000001000.000001000.000001000.000001000.00000
     Eigenvalues --- 1000.000001000.000001000.000001000.000001000.00000
     Eigenvalues --- 1000.000001000.000001000.000001000.000001000.00000
     Eigenvalues --- 1000.00000
 RFO step:  Lambda=-1.74172012D-07 EMin= 4.05517842D-03
 Linear search not attempted -- first point.
 Iteration  1 RMS(Cart)=  0.00027534 RMS(Int)=  0.00000004
 Iteration  2 RMS(Cart)=  0.00000004 RMS(Int)=  0.00000002
 ClnCor:  largest displacement from symmetrization is 3.24D-13 for atom    11.
 Variable       Old X    -DE/DX   Delta X   Delta X   Delta X     New X
                                 (Linear)    (Quad)   (Total)
    R1        2.88608  -0.00001   0.00000  -0.00004  -0.00004   2.88604
    R2        2.06343  -0.00003   0.00000  -0.00009  -0.00009   2.06334
    R3        2.06616   0.00000   0.00000   0.00001   0.00001   2.06617
    R4        2.06616   0.00000   0.00000   0.00001   0.00001   2.06617
    R5        2.88608  -0.00001   0.00000  -0.00004  -0.00004   2.88604
    R6        2.06740   0.00004   0.00000   0.00010   0.00010   2.06750
    R7        2.06740   0.00004   0.00000   0.00010   0.00010   2.06750
    R8        2.06343  -0.00003   0.00000  -0.00009  -0.00009   2.06334
    R9        2.06616   0.00000   0.00000   0.00001   0.00001   2.06617
   R10        2.06616   0.00000   0.00000   0.00001   0.00001   2.06617
    A1        1.94988   0.00005   0.00000   0.00031   0.00031   1.95019
    A2        1.93235   0.00003   0.00000   0.00015   0.00015   1.93250
    A3        1.93235   0.00003   0.00000   0.00015   0.00015   1.93250
    A4        1.88419  -0.00004   0.00000  -0.00022  -0.00022   1.88397
    A5        1.88419  -0.00004   0.00000  -0.00022  -0.00022   1.88397
    A6        1.87839  -0.00003   0.00000  -0.00022  -0.00022   1.87817
    A7        1.95453   0.00008   0.00000   0.00044   0.00044   1.95497
    A8        1.91223  -0.00002   0.00000  -0.00004  -0.00004   1.91219
    A9        1.91223  -0.00002   0.00000  -0.00004  -0.00004   1.91219
   A10        1.91223  -0.00002   0.00000  -0.00004  -0.00004   1.91219
   A11        1.91223  -0.00002   0.00000  -0.00004  -0.00004   1.91219
   A12        1.85789   0.00000   0.00000  -0.00033  -0.00033   1.85756
   A13        1.94988   0.00005   0.00000   0.00031   0.00031   1.95019
   A14        1.93235   0.00003   0.00000   0.00015   0.00015   1.93250
   A15        1.93235   0.00003   0.00000   0.00015   0.00015   1.93250
   A16        1.88419  -0.00004   0.00000  -0.00022  -0.00022   1.88397
   A17        1.88419  -0.00004   0.00000  -0.00022  -0.00022   1.88397
   A18        1.87839  -0.00003   0.00000  -0.00022  -0.00022   1.87817
    D1        3.14159   0.00000   0.00000   0.00000   0.00000   3.14159
    D2        1.01609  -0.00001   0.00000  -0.00022  -0.00022   1.01587
    D3       -1.01609   0.00001   0.00000   0.00022   0.00022  -1.01587
    D4       -1.04092   0.00000   0.00000   0.00004   0.00004  -1.04088
    D5        3.11677  -0.00001   0.00000  -0.00018  -0.00018   3.11659
    D6        1.08458   0.00001   0.00000   0.00026   0.00026   1.08484
    D7        1.04092   0.00000   0.00000  -0.00004  -0.00004   1.04088
    D8       -1.08458  -0.00001   0.00000  -0.00026  -0.00026  -1.08484
    D9       -3.11677   0.00001   0.00000   0.00018   0.00018  -3.11659
   D10        3.14159   0.00000   0.00000   0.00000   0.00000   3.14159
   D11        1.04092   0.00000   0.00000  -0.00004  -0.00004   1.04088
   D12       -1.04092   0.00000   0.00000   0.00004   0.00004  -1.04088
   D13       -1.01609   0.00001   0.00000   0.00022   0.00022  -1.01587
   D14       -3.11677   0.00001   0.00000   0.00018   0.00018  -3.11659
   D15        1.08458   0.00001   0.00000   0.00026   0.00026   1.08484
   D16        1.01609  -0.00001   0.00000  -0.00022  -0.00022   1.01587
   D17       -1.08458  -0.00001   0.00000  -0.00026  -0.00026  -1.08484
   D18        3.11677  -0.00001   0.00000  -0.00018  -0.00018   3.11659
         Item               Value     Threshold  Converged?
 Maximum Force            0.000075     0.000450     YES
 RMS     Force            0.000025     0.000300     YES
 Maximum Displacement     0.000825     0.001800     YES
 RMS     Displacement     0.000275     0.001200     YES
 Predicted change in Energy=-8.708866D-08
 Optimization completed.
    -- Stationary point found.
                           ----------------------------
                           !   Optimized Parameters   !
                           ! (Angstroms and Degrees)  !
 --------------------------                            --------------------------
 ! Name  Definition              Value          Derivative Info.                !
 --------------------------------------------------------------------------------
 ! R1    R(1,2)                  1.5272         -DE/DX =    0.0                 !
 ! R2    R(1,4)                  1.0919         -DE/DX =    0.0                 !
 ! R3    R(1,5)                  1.0934         -DE/DX =    0.0                 !
 ! R4    R(1,6)                  1.0934         -DE/DX =    0.0                 !
 ! R5    R(2,3)                  1.5272         -DE/DX =    0.0                 !
 ! R6    R(2,7)                  1.094          -DE/DX =    0.0                 !
 ! R7    R(2,8)                  1.094          -DE/DX =    0.0                 !
 ! R8    R(3,9)                  1.0919         -DE/DX =    0.0                 !
 ! R9    R(3,10)                 1.0934         -DE/DX =    0.0                 !
 ! R10   R(3,11)                 1.0934         -DE/DX =    0.0                 !
 ! A1    A(2,1,4)              111.7198         -DE/DX =    0.0                 !
 ! A2    A(2,1,5)              110.7154         -DE/DX =    0.0                 !
 ! A3    A(2,1,6)              110.7154         -DE/DX =    0.0                 !
 ! A4    A(4,1,5)              107.9559         -DE/DX =    0.0                 !
 ! A5    A(4,1,6)              107.9559         -DE/DX =    0.0                 !
 ! A6    A(5,1,6)              107.6239         -DE/DX =    0.0                 !
 ! A7    A(1,2,3)              111.9864         -DE/DX =    0.0001              !
 ! A8    A(1,2,7)              109.5626         -DE/DX =    0.0                 !
 ! A9    A(1,2,8)              109.5626         -DE/DX =    0.0                 !
 ! A10   A(3,2,7)              109.5626         -DE/DX =    0.0                 !
 ! A11   A(3,2,8)              109.5626         -DE/DX =    0.0                 !
 ! A12   A(7,2,8)              106.4492         -DE/DX =    0.0                 !
 ! A13   A(2,3,9)              111.7198         -DE/DX =    0.0                 !
 ! A14   A(2,3,10)             110.7154         -DE/DX =    0.0                 !
 ! A15   A(2,3,11)             110.7154         -DE/DX =    0.0                 !
 ! A16   A(9,3,10)             107.9559         -DE/DX =    0.0                 !
 ! A17   A(9,3,11)             107.9559         -DE/DX =    0.0                 !
 ! A18   A(10,3,11)            107.6239         -DE/DX =    0.0                 !
 ! D1    D(4,1,2,3)            180.0            -DE/DX =    0.0                 !
 ! D2    D(4,1,2,7)             58.2179         -DE/DX =    0.0                 !
 ! D3    D(4,1,2,8)            -58.2179         -DE/DX =    0.0                 !
 ! D4    D(5,1,2,3)            -59.6402         -DE/DX =    0.0                 !
 ! D5    D(5,1,2,7)            178.5776         -DE/DX =    0.0                 !
 ! D6    D(5,1,2,8)             62.1419         -DE/DX =    0.0                 !
 ! D7    D(6,1,2,3)             59.6402         -DE/DX =    0.0                 !
 ! D8    D(6,1,2,7)            -62.1419         -DE/DX =    0.0                 !
 ! D9    D(6,1,2,8)           -178.5776         -DE/DX =    0.0                 !
 ! D10   D(1,2,3,9)            180.0            -DE/DX =    0.0                 !
 ! D11   D(1,2,3,10)            59.6402         -DE/DX =    0.0                 !
 ! D12   D(1,2,3,11)           -59.6402         -DE/DX =    0.0                 !
 ! D13   D(7,2,3,9)            -58.2179         -DE/DX =    0.0                 !
 ! D14   D(7,2,3,10)          -178.5776         -DE/DX =    0.0                 !
 ! D15   D(7,2,3,11)            62.1419         -DE/DX =    0.0                 !
 ! D16   D(8,2,3,9)             58.2179         -DE/DX =    0.0                 !
 ! D17   D(8,2,3,10)           -62.1419         -DE/DX =    0.0                 !
 ! D18   D(8,2,3,11)           178.5776         -DE/DX =    0.0                 !
 --------------------------------------------------------------------------------
 GradGradGradGradGradGradGradGradGradGradGradGradGradGradGradGradGradGrad

                          Input orientation:                          
 ---------------------------------------------------------------------
 Center     Atomic      Atomic             Coordinates (Angstroms)
 Number     Number       Type             X           Y           Z
 ---------------------------------------------------------------------
      1          6           0       -1.266044   -0.261307    0.000000
      2          6           0        0.000000    0.592869    0.000000
      3          6           0        1.266044   -0.261307    0.000000
      4          1           0       -2.168362    0.353598    0.000000
      5          1           0       -1.297559   -0.906102   -0.882438
      6          1           0       -1.297559   -0.906102    0.882438
      7          1           0        0.000000    1.247836    0.876297
      8          1           0        0.000000    1.247836   -0.876297
      9          1           0        2.168362    0.353597    0.000000
     10          1           0        1.297559   -0.906102   -0.882438
     11          1           0        1.297559   -0.906102    0.882438
 ---------------------------------------------------------------------
                    Distance matrix (angstroms):
                    1          2          3          4          5
     1  C    0.000000
     2  C    1.527247   0.000000
     3  C    2.532088   1.527247   0.000000
     4  H    1.091918   2.181524   3.489019   0.000000
     5  H    1.093367   2.170085   2.786847   1.767439   0.000000
     6  H    1.093367   2.170085   2.786847   1.767439   1.764876
     7  H    2.155986   1.094019   2.155986   2.503868   3.068592
     8  H    2.155986   1.094019   2.155986   2.503868   2.514587
     9  H    3.489019   2.181524   1.091918   4.336724   3.791853
    10  H    2.786847   2.170085   1.093367   3.791853   2.595118
    11  H    2.786847   2.170085   1.093367   3.791853   3.138379
                    6          7          8          9         10
     6  H    0.000000
     7  H    2.514587   0.000000
     8  H    3.068592   1.752594   0.000000
     9  H    3.791853   2.503868   2.503868   0.000000
    10  H    3.138379   3.068592   2.514587   1.767439   0.000000
    11  H    2.595118   2.514587   3.068592   1.767439   1.764876
                   11
    11  H    0.000000
 Stoichiometry    C3H8
 Framework group  C2V[C2(C),SGV(C2H2),SGV'(H2),X(H4)]
 Deg. of freedom     9
 Full point group                 C2V     NOp   4
 Omega: Change in point group or standard orientation.

 Old FWG=C02V [C2(C1),SGV(H2),SGV'(C2H2),X(H4)]
 New FWG=C02V [C2(C1),SGV(C2H2),SGV'(H2),X(H4)]
 Largest Abelian subgroup         C2V     NOp   4
 Largest concise Abelian subgroup C2V     NOp   4
                         Standard orientation:                         
 ---------------------------------------------------------------------
 Center     Atomic      Atomic             Coordinates (Angstroms)
 Number     Number       Type             X           Y           Z
 ---------------------------------------------------------------------
      1          6           0        0.000000    1.266044   -0.261307
      2          6           0        0.000000    0.000000    0.592869
      3          6           0        0.000000   -1.266044   -0.261307
      4          1           0        0.000000    2.168362    0.353598
      5          1           0        0.882438    1.297559   -0.906102
      6          1           0       -0.882438    1.297559   -0.906102
      7          1           0       -0.876297    0.000000    1.247836
      8          1           0        0.876297    0.000000    1.247836
      9          1           0        0.000000   -2.168362    0.353598
     10          1           0        0.882438   -1.297559   -0.906102
     11          1           0       -0.882438   -1.297559   -0.906102
 ---------------------------------------------------------------------
 Rotational constants (GHZ):     29.3142593      8.5051579      7.5108647
 1\1\GINC-LOCALHOST\FOpt\RM062X\6-311++G(d,p)\C3H8\ROOT\17-Mar-2022\0\\
 # opt freq=hinderedrotor M062X/6-311++g(d,p) press=0.987 symm=loose\
 \CCC_1\\0,1\C,-1.266044,-0.261307,0.0000000769\C,0.00000011,0.592869,0
 .0000000769\C,1.2660440139,-0.2613073055,0.0000000769\H,-2.168362,0.35
 3598,0.0000000769\H,-1.297559,-0.906102,-0.882438\H,-1.297559,-0.90610
 2,0.8824381538\H,0.000000189,1.247836,0.876297\H,0.000000189,1.247836,
 -0.8762968462\H,2.1683621622,0.3535974768,0.0000000769\H,1.2975588583,
 -0.9061023131,-0.882438\H,1.2975588583,-0.9061023131,0.8824381538\\Ver
 sion=EM64L-G09RevA.01\State=1-A1\HF=-119.1006701\RMSD=1.369e-09\RMSF=4
 .872e-05\Dipole=0.,0.0347078,0.\Quadrupole=-0.2572607,-0.0532766,0.310
 5372,0.,0.,0.\PG=C02V [C2(C1),SGV(C2H2),SGV'(H2),X(H4)]\\@


 SUPPORT THE RIGHT TO ARM BEARS!
 (ADD A CLAWS TO THE BILL OF RIGHTS)
 Job cpu time:  0 days  0 hours  0 minutes 36.3 seconds.
 File lengths (MBytes):  RWF=     10 Int=      0 D2E=      0 Chk=      2 Scr=      1
 Normal termination of Gaussian 09 at Thu Mar 17 11:53:24 2022.
 Link1:  Proceeding to internal job step number  2.
 ----------------------------------------------------------------------
 #N Geom=AllCheck Guess=TCheck SCRF=Check GenChk RM062X/6-311++G(d,p) F
 req
 ----------------------------------------------------------------------
 1/10=4,18=20,29=7,30=1,38=1,40=1,112=-986920/1,3;
 2/12=2,17=4,18=3,40=1/2;
 3/5=4,6=6,7=1111,11=2,14=-4,16=1,25=1,30=1,70=2,71=2,74=-55,116=1/1,2,3;
 4/5=101/1;
 5/5=2,98=1/2;
 8/6=4,10=90,11=11/1;
 11/6=1,8=1,9=11,15=111,16=1/1,2,10;
 10/6=1/2;
 6/7=2,8=2,9=2,10=2,18=1,28=1/1;
 7/8=2001,10=1,25=1/1,2,3,16;
 1/10=4,18=20,30=1/3;
 99/8=20/99;
 -----
 CCC_1
 -----
 Redundant internal coordinates taken from checkpoint file:
 CCC.chk
 Charge =  0 Multiplicity = 1
 C,0,-1.266044,-0.261307,0.0000000769
 C,0,0.00000011,0.592869,0.0000000769
 C,0,1.2660440139,-0.2613073055,0.0000000769
 H,0,-2.168362,0.353598,0.0000000769
 H,0,-1.297559,-0.906102,-0.882438
 H,0,-1.297559,-0.906102,0.8824381538
 H,0,0.000000189,1.247836,0.876297
 H,0,0.000000189,1.247836,-0.8762968462
 H,0,2.1683621622,0.3535974768,0.0000000769
 H,0,1.2975588583,-0.9061023131,-0.882438
 H,0,1.2975588583,-0.9061023131,0.8824381538
 Recover connectivity data from disk.

 GradGradGradGradGradGradGradGradGradGradGradGradGradGradGradGradGradGrad
 Berny optimization.
 Initialization pass.
                           ----------------------------
                           !    Initial Parameters    !
                           ! (Angstroms and Degrees)  !
 --------------------------                            --------------------------
 ! Name  Definition              Value          Derivative Info.                !
 --------------------------------------------------------------------------------
 ! R1    R(1,2)                  1.5272         calculate D2E/DX2 analytically  !
 ! R2    R(1,4)                  1.0919         calculate D2E/DX2 analytically  !
 ! R3    R(1,5)                  1.0934         calculate D2E/DX2 analytically  !
 ! R4    R(1,6)                  1.0934         calculate D2E/DX2 analytically  !
 ! R5    R(2,3)                  1.5272         calculate D2E/DX2 analytically  !
 ! R6    R(2,7)                  1.094          calculate D2E/DX2 analytically  !
 ! R7    R(2,8)                  1.094          calculate D2E/DX2 analytically  !
 ! R8    R(3,9)                  1.0919         calculate D2E/DX2 analytically  !
 ! R9    R(3,10)                 1.0934         calculate D2E/DX2 analytically  !
 ! R10   R(3,11)                 1.0934         calculate D2E/DX2 analytically  !
 ! A1    A(2,1,4)              111.7198         calculate D2E/DX2 analytically  !
 ! A2    A(2,1,5)              110.7154         calculate D2E/DX2 analytically  !
 ! A3    A(2,1,6)              110.7154         calculate D2E/DX2 analytically  !
 ! A4    A(4,1,5)              107.9559         calculate D2E/DX2 analytically  !
 ! A5    A(4,1,6)              107.9559         calculate D2E/DX2 analytically  !
 ! A6    A(5,1,6)              107.6239         calculate D2E/DX2 analytically  !
 ! A7    A(1,2,3)              111.9864         calculate D2E/DX2 analytically  !
 ! A8    A(1,2,7)              109.5626         calculate D2E/DX2 analytically  !
 ! A9    A(1,2,8)              109.5626         calculate D2E/DX2 analytically  !
 ! A10   A(3,2,7)              109.5626         calculate D2E/DX2 analytically  !
 ! A11   A(3,2,8)              109.5626         calculate D2E/DX2 analytically  !
 ! A12   A(7,2,8)              106.4492         calculate D2E/DX2 analytically  !
 ! A13   A(2,3,9)              111.7198         calculate D2E/DX2 analytically  !
 ! A14   A(2,3,10)             110.7154         calculate D2E/DX2 analytically  !
 ! A15   A(2,3,11)             110.7154         calculate D2E/DX2 analytically  !
 ! A16   A(9,3,10)             107.9559         calculate D2E/DX2 analytically  !
 ! A17   A(9,3,11)             107.9559         calculate D2E/DX2 analytically  !
 ! A18   A(10,3,11)            107.6239         calculate D2E/DX2 analytically  !
 ! D1    D(4,1,2,3)            180.0            calculate D2E/DX2 analytically  !
 ! D2    D(4,1,2,7)             58.2179         calculate D2E/DX2 analytically  !
 ! D3    D(4,1,2,8)            -58.2179         calculate D2E/DX2 analytically  !
 ! D4    D(5,1,2,3)            -59.6402         calculate D2E/DX2 analytically  !
 ! D5    D(5,1,2,7)            178.5776         calculate D2E/DX2 analytically  !
 ! D6    D(5,1,2,8)             62.1419         calculate D2E/DX2 analytically  !
 ! D7    D(6,1,2,3)             59.6402         calculate D2E/DX2 analytically  !
 ! D8    D(6,1,2,7)            -62.1419         calculate D2E/DX2 analytically  !
 ! D9    D(6,1,2,8)           -178.5776         calculate D2E/DX2 analytically  !
 ! D10   D(1,2,3,9)            180.0            calculate D2E/DX2 analytically  !
 ! D11   D(1,2,3,10)            59.6402         calculate D2E/DX2 analytically  !
 ! D12   D(1,2,3,11)           -59.6402         calculate D2E/DX2 analytically  !
 ! D13   D(7,2,3,9)            -58.2179         calculate D2E/DX2 analytically  !
 ! D14   D(7,2,3,10)          -178.5776         calculate D2E/DX2 analytically  !
 ! D15   D(7,2,3,11)            62.1419         calculate D2E/DX2 analytically  !
 ! D16   D(8,2,3,9)             58.2179         calculate D2E/DX2 analytically  !
 ! D17   D(8,2,3,10)           -62.1419         calculate D2E/DX2 analytically  !
 ! D18   D(8,2,3,11)           178.5776         calculate D2E/DX2 analytically  !
 --------------------------------------------------------------------------------
 Trust Radius=3.00D-01 FncErr=1.00D-07 GrdErr=1.00D-07
 Number of steps in this run=   2 maximum allowed number of steps=   2.
 GradGradGradGradGradGradGradGradGradGradGradGradGradGradGradGradGradGrad

                          Input orientation:                          
 ---------------------------------------------------------------------
 Center     Atomic      Atomic             Coordinates (Angstroms)
 Number     Number       Type             X           Y           Z
 ---------------------------------------------------------------------
      1          6           0       -1.266044   -0.261307    0.000000
      2          6           0        0.000000    0.592869    0.000000
      3          6           0        1.266044   -0.261307    0.000000
      4          1           0       -2.168362    0.353598    0.000000
      5          1           0       -1.297559   -0.906102   -0.882438
      6          1           0       -1.297559   -0.906102    0.882438
      7          1           0        0.000000    1.247836    0.876297
      8          1           0        0.000000    1.247836   -0.876297
      9          1           0        2.168362    0.353597    0.000000
     10          1           0        1.297559   -0.906102   -0.882438
     11          1           0        1.297559   -0.906102    0.882438
 ---------------------------------------------------------------------
                    Distance matrix (angstroms):
                    1          2          3          4          5
     1  C    0.000000
     2  C    1.527247   0.000000
     3  C    2.532088   1.527247   0.000000
     4  H    1.091918   2.181524   3.489019   0.000000
     5  H    1.093367   2.170085   2.786847   1.767439   0.000000
     6  H    1.093367   2.170085   2.786847   1.767439   1.764876
     7  H    2.155986   1.094019   2.155986   2.503868   3.068592
     8  H    2.155986   1.094019   2.155986   2.503868   2.514587
     9  H    3.489019   2.181524   1.091918   4.336724   3.791853
    10  H    2.786847   2.170085   1.093367   3.791853   2.595118
    11  H    2.786847   2.170085   1.093367   3.791853   3.138379
                    6          7          8          9         10
     6  H    0.000000
     7  H    2.514587   0.000000
     8  H    3.068592   1.752594   0.000000
     9  H    3.791853   2.503868   2.503868   0.000000
    10  H    3.138379   3.068592   2.514587   1.767439   0.000000
    11  H    2.595118   2.514587   3.068592   1.767439   1.764876
                   11
    11  H    0.000000
 Stoichiometry    C3H8
 Framework group  C2V[C2(C),SGV(C2H2),SGV'(H2),X(H4)]
 Deg. of freedom     9
 Full point group                 C2V     NOp   4
 Largest Abelian subgroup         C2V     NOp   4
 Largest concise Abelian subgroup C2V     NOp   4
                         Standard orientation:                         
 ---------------------------------------------------------------------
 Center     Atomic      Atomic             Coordinates (Angstroms)
 Number     Number       Type             X           Y           Z
 ---------------------------------------------------------------------
      1          6           0        0.000000    1.266044   -0.261307
      2          6           0        0.000000    0.000000    0.592869
      3          6           0        0.000000   -1.266044   -0.261307
      4          1           0        0.000000    2.168362    0.353598
      5          1           0        0.882438    1.297559   -0.906102
      6          1           0       -0.882438    1.297559   -0.906102
      7          1           0       -0.876297    0.000000    1.247836
      8          1           0        0.876297    0.000000    1.247836
      9          1           0        0.000000   -2.168362    0.353598
     10          1           0        0.882438   -1.297559   -0.906102
     11          1           0       -0.882438   -1.297559   -0.906102
 ---------------------------------------------------------------------
 Rotational constants (GHZ):     29.3142593      8.5051579      7.5108647
 Standard basis: 6-311++G(d,p) (5D, 7F)
 There are    46 symmetry adapted basis functions of A1  symmetry.
 There are    16 symmetry adapted basis functions of A2  symmetry.
 There are    25 symmetry adapted basis functions of B1  symmetry.
 There are    35 symmetry adapted basis functions of B2  symmetry.
 Integral buffers will be    131072 words long.
 Raffenetti 2 integral format.
 Two-electron integral symmetry is turned on.
   122 basis functions,   180 primitive gaussians,   125 cartesian basis functions
    13 alpha electrons       13 beta electrons
       nuclear repulsion energy        82.6393293476 Hartrees.
 NAtoms=   11 NActive=   11 NUniq=    5 SFac= 3.00D+00 NAtFMM=   80 NAOKFM=F Big=F
 One-electron integrals computed using PRISM.
 NBasis=   122 RedAO= T  NBF=    46    16    25    35
 NBsUse=   122 1.00D-06 NBFU=    46    16    25    35
 Initial guess read from the checkpoint file:  CCC.chk
 B after Tr=     0.000000    0.000000    0.000000
         Rot=    0.707107    0.000000    0.000000   -0.707107 Ang=  90.00 deg.
 Initial guess orbital symmetries:
       Occupied  (A1) (B2) (A1) (A1) (B2) (A1) (B1) (A1) (B2) (A2)
                 (A1) (B2) (B1)
       Virtual   (A1) (B2) (A1) (B1) (A1) (B2) (B1) (A2) (A1) (A1)
                 (B2) (A2) (B2) (B1) (A1) (B2) (A1) (B1) (A1) (B2)
                 (B1) (A1) (B1) (A2) (B2) (A1) (A1) (B2) (B2) (A1)
                 (A1) (A2) (B1) (B2) (A1) (B1) (B2) (A1) (B1) (B1)
                 (B2) (B2) (A2) (A1) (A1) (A1) (B2) (A1) (A1) (B2)
                 (A2) (A1) (B2) (B1) (A2) (A1) (B1) (A2) (A1) (A2)
                 (B1) (B2) (B1) (B2) (A1) (B1) (A2) (A1) (B2) (B1)
                 (B2) (A1) (A2) (B2) (A1) (B2) (A1) (B1) (B2) (A1)
                 (A2) (A1) (B1) (B2) (A2) (A1) (B2) (B1) (A1) (B1)
                 (B2) (A1) (B1) (A2) (A1) (B2) (A1) (B2) (A1) (A2)
                 (B2) (B1) (A1) (B1) (A1) (B2) (A1) (B2) (A1)
 Requested convergence on RMS density matrix=1.00D-08 within 128 cycles.
 Requested convergence on MAX density matrix=1.00D-06.
 Requested convergence on             energy=1.00D-06.
 No special actions if energy rises.
 Keep R1 ints in memory in canonical form, NReq=32174197.
 PrsmSu:  requested number of processors reduced to:   2 ShMem   1 Linda.
 CalDSu:  requested number of processors reduced to:   2 ShMem   1 Linda.
 SCF Done:  E(RM062X) =  -119.100670081     A.U. after    1 cycles
             Convg  =    0.2133D-09             -V/T =  2.0049
 Range of M.O.s used for correlation:     1   122
 NBasis=   122 NAE=    13 NBE=    13 NFC=     0 NFV=     0
 NROrb=    122 NOA=    13 NOB=    13 NVA=   109 NVB=   109

 **** Warning!!: The largest alpha MO coefficient is  0.50498209D+02

 Symmetrizing basis deriv contribution to polar:
 IMax=3 JMax=2 DiffMx= 0.00D+00
 G2DrvN: will do    12 centers at a time, making    1 passes doing MaxLOS=2.
 Calling FoFCou, ICntrl=  3107 FMM=F I1Cent=   0 AccDes= 0.00D+00.
 FoFDir/FoFCou used for L=0 through L=2.
 End of G2Drv Frequency-dependent properties file   721 does not exist.
 End of G2Drv Frequency-dependent properties file   722 does not exist.
          IDoAtm=11111111111
          Differentiating once with respect to electric field.
                with respect to dipole field.
          Differentiating once with respect to nuclear coordinates.
          Keep R1 ints in memory in canonical form, NReq=31835834.
 PrsmSu:  requested number of processors reduced to:   2 ShMem   1 Linda.
 Estimated number of processors is:    2
 CalDSu:  requested number of processors reduced to:   1 ShMem   1 Linda.
          There are    18 degrees of freedom in the 1st order CPHF.  IDoFFX=4.
     18 vectors produced by pass  0 Test12= 7.87D-15 5.56D-09 XBig12= 1.61D+01 1.63D+00.
 Estimated number of processors is:    2
 AX will form    18 AO Fock derivatives at one time.
 CalDSu:  requested number of processors reduced to:   1 ShMem   1 Linda.
     18 vectors produced by pass  1 Test12= 7.87D-15 5.56D-09 XBig12= 7.48D-01 2.30D-01.
 Estimated number of processors is:    2
 CalDSu:  requested number of processors reduced to:   1 ShMem   1 Linda.
     18 vectors produced by pass  2 Test12= 7.87D-15 5.56D-09 XBig12= 1.07D-02 2.23D-02.
 Estimated number of processors is:    2
 CalDSu:  requested number of processors reduced to:   1 ShMem   1 Linda.
     18 vectors produced by pass  3 Test12= 7.87D-15 5.56D-09 XBig12= 8.91D-05 2.22D-03.
 Estimated number of processors is:    2
 CalDSu:  requested number of processors reduced to:   1 ShMem   1 Linda.
     18 vectors produced by pass  4 Test12= 7.87D-15 5.56D-09 XBig12= 4.93D-07 1.23D-04.
 Estimated number of processors is:    2
 CalDSu:  requested number of processors reduced to:   1 ShMem   1 Linda.
     18 vectors produced by pass  5 Test12= 7.87D-15 5.56D-09 XBig12= 2.11D-09 9.20D-06.
 Estimated number of processors is:    2
 CalDSu:  requested number of processors reduced to:   1 ShMem   1 Linda.
     10 vectors produced by pass  6 Test12= 7.87D-15 5.56D-09 XBig12= 9.30D-12 5.92D-07.
 Estimated number of processors is:    2
 CalDSu:  requested number of processors reduced to:   1 ShMem   1 Linda.
      3 vectors produced by pass  7 Test12= 7.87D-15 5.56D-09 XBig12= 4.14D-14 4.59D-08.
 Estimated number of processors is:    2
 CalDSu:  requested number of processors reduced to:   1 ShMem   1 Linda.
      2 vectors produced by pass  8 Test12= 7.87D-15 5.56D-09 XBig12= 1.46D-15 1.38D-08.
 Estimated number of processors is:    2
 CalDSu:  requested number of processors reduced to:   1 ShMem   1 Linda.
 Inverted reduced A of dimension   123 with in-core refinement.
 Estimated number of processors is:    2
 CalDSu:  requested number of processors reduced to:   1 ShMem   1 Linda.
 Isotropic polarizability for W=    0.000000       38.08 Bohr**3.
 End of Minotr Frequency-dependent properties file   721 does not exist.
 End of Minotr Frequency-dependent properties file   722 does not exist.

 **********************************************************************

            Population analysis using the SCF density.

 **********************************************************************

 Orbital symmetries:
       Occupied  (A1) (B2) (A1) (A1) (B2) (A1) (B1) (A1) (B2) (A2)
                 (A1) (B2) (B1)
       Virtual   (A1) (B2) (A1) (B1) (A1) (B2) (B1) (A2) (A1) (A1)
                 (B2) (A2) (B2) (B1) (A1) (B2) (A1) (B1) (A1) (B2)
                 (B1) (A1) (B1) (A2) (B2) (A1) (A1) (B2) (B2) (A1)
                 (A1) (A2) (B1) (B2) (A1) (B1) (B2) (A1) (B1) (B1)
                 (B2) (B2) (A2) (A1) (A1) (A1) (B2) (A1) (A1) (B2)
                 (A2) (A1) (B2) (B1) (A2) (A1) (B1) (A2) (A1) (A2)
                 (B1) (B2) (B1) (B2) (A1) (B1) (A2) (A1) (B2) (B1)
                 (B2) (A1) (A2) (B2) (A1) (B2) (A1) (B1) (B2) (A1)
                 (A2) (A1) (B1) (B2) (A2) (A1) (B2) (B1) (A1) (B1)
                 (B2) (A1) (B1) (A2) (A1) (B2) (A1) (B2) (A1) (A2)
                 (B2) (B1) (A1) (B1) (A1) (B2) (A1) (B2) (A1)
 The electronic state is 1-A1.
 Alpha  occ. eigenvalues --  -10.52859 -10.51989 -10.51987  -0.87869  -0.76972
 Alpha  occ. eigenvalues --   -0.66615  -0.52753  -0.50463  -0.46120  -0.44309
 Alpha  occ. eigenvalues --   -0.39534  -0.39494  -0.38645
 Alpha virt. eigenvalues --    0.00158   0.01963   0.02117   0.02351   0.04704
 Alpha virt. eigenvalues --    0.05414   0.05535   0.06195   0.08257   0.10559
 Alpha virt. eigenvalues --    0.11694   0.12458   0.13099   0.13421   0.13965
 Alpha virt. eigenvalues --    0.15305   0.15318   0.15759   0.17982   0.18353
 Alpha virt. eigenvalues --    0.21100   0.21874   0.24223   0.24435   0.26113
 Alpha virt. eigenvalues --    0.27630   0.31755   0.31995   0.33118   0.35709
 Alpha virt. eigenvalues --    0.43984   0.44795   0.47910   0.50589   0.51179
 Alpha virt. eigenvalues --    0.57512   0.58986   0.68472   0.70406   0.70602
 Alpha virt. eigenvalues --    0.70933   0.71215   0.71911   0.72382   0.74562
 Alpha virt. eigenvalues --    0.79194   0.80880   0.87351   0.96346   1.00258
 Alpha virt. eigenvalues --    1.02003   1.05101   1.22893   1.30739   1.31897
 Alpha virt. eigenvalues --    1.47362   1.51466   1.51627   1.59062   1.59333
 Alpha virt. eigenvalues --    1.59881   1.60868   1.62389   1.63503   1.68631
 Alpha virt. eigenvalues --    1.74096   1.77267   1.77456   1.77738   1.84279
 Alpha virt. eigenvalues --    1.84310   1.95886   2.05422   2.10730   2.12015
 Alpha virt. eigenvalues --    2.14340   2.20889   2.26684   2.35997   2.38267
 Alpha virt. eigenvalues --    2.41109   2.49051   2.52670   2.53148   2.55357
 Alpha virt. eigenvalues --    2.56638   2.57327   2.59199   2.66874   2.72833
 Alpha virt. eigenvalues --    2.74367   2.74781   2.75434   2.76102   2.81692
 Alpha virt. eigenvalues --    2.94095   2.97706   3.14201   3.37753   3.82855
 Alpha virt. eigenvalues --    3.84069   3.86933   3.87520   3.88683   4.18356
 Alpha virt. eigenvalues --    4.35092  23.95622  24.05706  24.06682
          Condensed to atoms (all electrons):
              1          2          3          4          5          6
     1  C    5.221234   0.224226  -0.053568   0.397165   0.406852   0.406852
     2  C    0.224226   5.041317   0.224226  -0.043970  -0.026326  -0.026326
     3  C   -0.053568   0.224226   5.221234   0.014358  -0.014602  -0.014602
     4  H    0.397165  -0.043970   0.014358   0.555586  -0.031728  -0.031728
     5  H    0.406852  -0.026326  -0.014602  -0.031728   0.579300  -0.057498
     6  H    0.406852  -0.026326  -0.014602  -0.031728  -0.057498   0.579300
     7  H   -0.056219   0.461934  -0.056219  -0.003371   0.010016  -0.014658
     8  H   -0.056219   0.461934  -0.056219  -0.003371  -0.014658   0.010016
     9  H    0.014358  -0.043970   0.397165  -0.001503  -0.000495  -0.000495
    10  H   -0.014602  -0.026326   0.406852  -0.000495   0.005072  -0.000379
    11  H   -0.014602  -0.026326   0.406852  -0.000495  -0.000379   0.005072
              7          8          9         10         11
     1  C   -0.056219  -0.056219   0.014358  -0.014602  -0.014602
     2  C    0.461934   0.461934  -0.043970  -0.026326  -0.026326
     3  C   -0.056219  -0.056219   0.397165   0.406852   0.406852
     4  H   -0.003371  -0.003371  -0.001503  -0.000495  -0.000495
     5  H    0.010016  -0.014658  -0.000495   0.005072  -0.000379
     6  H   -0.014658   0.010016  -0.000495  -0.000379   0.005072
     7  H    0.578019  -0.058717  -0.003371   0.010016  -0.014658
     8  H   -0.058717   0.578019  -0.003371  -0.014658   0.010016
     9  H   -0.003371  -0.003371   0.555586  -0.031728  -0.031728
    10  H    0.010016  -0.014658  -0.031728   0.579300  -0.057498
    11  H   -0.014658   0.010016  -0.031728  -0.057498   0.579300
 Mulliken atomic charges:
              1
     1  C   -0.475475
     2  C   -0.220390
     3  C   -0.475475
     4  H    0.149552
     5  H    0.144445
     6  H    0.144445
     7  H    0.147227
     8  H    0.147227
     9  H    0.149552
    10  H    0.144445
    11  H    0.144445
 Sum of Mulliken atomic charges =   0.00000
 Mulliken charges with hydrogens summed into heavy atoms:
              1
     1  C   -0.037032
     2  C    0.074064
     3  C   -0.037032
 Sum of Mulliken charges with hydrogens summed into heavy atoms =   0.00000
 APT atomic charges:
              1
     1  C    0.032598
     2  C    0.114325
     3  C    0.032598
     4  H   -0.017907
     5  H   -0.015227
     6  H   -0.015227
     7  H   -0.041399
     8  H   -0.041399
     9  H   -0.017907
    10  H   -0.015227
    11  H   -0.015227
 Sum of APT charges=   0.00000
 APT Atomic charges with hydrogens summed into heavy atoms:
              1
     1  C   -0.015764
     2  C    0.031528
     3  C   -0.015764
     4  H    0.000000
     5  H    0.000000
     6  H    0.000000
     7  H    0.000000
     8  H    0.000000
     9  H    0.000000
    10  H    0.000000
    11  H    0.000000
 Sum of APT charges=   0.00000
 Electronic spatial extent (au):  <R**2>=            226.2040
 Charge=              0.0000 electrons
 Dipole moment (field-independent basis, Debye):
    X=              0.0000    Y=              0.0000    Z=              0.0882  Tot=              0.0882
 Quadrupole moment (field-independent basis, Debye-Ang):
   XX=            -21.5869   YY=            -22.3506   ZZ=            -22.0762
   XY=              0.0000   XZ=              0.0000   YZ=              0.0000
 Traceless Quadrupole moment (field-independent basis, Debye-Ang):
   XX=              0.4177   YY=             -0.3460   ZZ=             -0.0717
   XY=              0.0000   XZ=              0.0000   YZ=              0.0000
 Octapole moment (field-independent basis, Debye-Ang**2):
  XXX=              0.0000  YYY=              0.0000  ZZZ=              0.4501  XYY=              0.0000
  XXY=              0.0000  XXZ=             -0.5027  XZZ=              0.0000  YZZ=              0.0000
  YYZ=              1.6094  XYZ=              0.0000
 Hexadecapole moment (field-independent basis, Debye-Ang**3):
 XXXX=            -45.1170 YYYY=           -203.7328 ZZZZ=            -73.7616 XXXY=              0.0000
 XXXZ=              0.0000 YYYX=              0.0000 YYYZ=              0.0000 ZZZX=              0.0000
 ZZZY=              0.0000 XXYY=            -42.6749 XXZZ=            -17.4338 YYZZ=            -45.9769
 XXYZ=              0.0000 YYXZ=              0.0000 ZZXY=              0.0000
 N-N= 8.263932934756D+01 E-N=-4.403984624329D+02  KE= 1.185160813620D+02
 Symmetry A1   KE= 7.334459356907D+01
 Symmetry A2   KE= 2.027667398866D+00
 Symmetry B1   KE= 3.861894659656D+00
 Symmetry B2   KE= 3.928192573443D+01
  Exact polarizability:  35.585   0.000  41.432   0.000   0.000  37.238
 Approx polarizability:  42.156   0.000  41.779   0.000   0.000  42.356
 Calling FoFJK, ICntrl=    100127 FMM=F ISym2X=1 I1Cent= 0 IOpClX= 0 NMat=1 NMatS=1 NMatT=0.
 Full mass-weighted force constant matrix:
 Low frequencies ---   -0.0006    0.0002    0.0007   20.0337   28.4771   67.0697
 Low frequencies ---  245.2422  300.7098  374.8742
 Diagonal vibrational polarizability:
        0.5719063       0.3907268       0.4441157

 rotorrotorrotorrotorrotorrotorrotorrotorrotorrotorrotor

           Hindered Internal Rotation Analysis

 rotorrotorrotorrotorrotorrotorrotorrotorrotorrotorrotor

 Internal coordinate list sorted
 Checking for planar centers
 Checking for ring deformation
 Checking reduced barrier height
 Cut-off : V/RT =     33.756
 Number of internal rotation degrees of freedom =             2
 Checking correspondance between vibrational and internal rotation modes
 Frequencies in cm**-1
                             1         2
       Frequencies ---   246.2019  305.3537
          245.0614        -0.9998    0.0000
          300.1505         0.0000    0.9983
          374.8742         0.0000    0.0000
 ----------------------------------------------------------------------------
 Identification of rotating group for bond      1 -      2
 Iteration  1 RMS(Cart)=  0.08683586 RMS(Int)=  0.02849986
 Iteration  2 RMS(Cart)=  0.02817910 RMS(Int)=  0.00062290
 Iteration  3 RMS(Cart)=  0.00064419 RMS(Int)=  0.00000022
 Iteration  4 RMS(Cart)=  0.00000026 RMS(Int)=  0.00000000
 Iteration  1 RMS(Cart)=  0.00000000 RMS(Int)=  0.00000000
 Composition of rotating group : 
       4       5       6
 Geometrical symmetry number =   3
 Identification of rotating group for bond      2 -      3
 Iteration  1 RMS(Cart)=  0.08683586 RMS(Int)=  0.02849986
 Iteration  2 RMS(Cart)=  0.02817910 RMS(Int)=  0.00062290
 Iteration  3 RMS(Cart)=  0.00064419 RMS(Int)=  0.00000022
 Iteration  4 RMS(Cart)=  0.00000026 RMS(Int)=  0.00000000
 Iteration  1 RMS(Cart)=  0.00000000 RMS(Int)=  0.00000000
 Composition of rotating group : 
       9      10      11
 Geometrical symmetry number =   3
 Checking constant moment of inertia assumption for bond       1 -       2
  Free rotor partition function: Estimated error   =   23.409 %
  External rot. free rotor partition function: Estimated error   =  -33.331 %
 Checking constant moment of inertia assumption for bond       2 -       3
  Free rotor partition function: Estimated error   =   -0.697 %
  External rot. free rotor partition function: Estimated error   =   -6.474 %

    Rotor          Bond     Periodicity   Symmetry Number  Multiplicity
       1)        1       2       3               3                1
       2)        2       3       3               3                1
 Normal Mode Analysis for Internal Rotation 
 frequencies (cm**-1), reduced moment of inertia (amu*Bohr**2)
                           1         2
       Frequencies ---   246.2019  305.3537
   Reduced Moments ---     1.2074    0.9351
     Bond
         1 -       2       0.7071    0.7071
         2 -       3       0.7071   -0.7071

 --------------------------------------------------
 - Thermochemistry For Hindered Internal Rotation -
 --------------------------------------------------
 Temperature    298.150 Kelvin. Pressure    0.987 Atm.

                           Q                Freq               V/RT
                      (Free Rot.)         (cm**-1)
 Vibration     1          3.630           245.061             5.867
 Vibration     2          3.235           300.150             6.989

 Corrections for hindered rotation 
 To obtain partition function for hindered rotation :
                     Multiply with harmonic oscillator partition function
 To obtain thermodynamic function for hindered rotation :
                     Add to harmonic oscillator partition function

                          Q(harm. osc.) =       0.506
 Q(hin.)/Q(harm. osc.)   Truhlar        Pitzer & Gwinn       McClurg 
 Vibration     1          1.000             1.057             1.072
 Vibration     2          1.000             1.045             1.064
 Multiplicity             1.000             1.000             1.000
 Total                    0.999             1.104             1.141

                          E(harm. osc.) =       1.353 Kcal/mol
 E(hin.)-E(harm. osc.)   Truhlar        Pitzer & Gwinn       McClurg 
                        Kcal/mol          Kcal/mol          Kcal/mol
 Vibration     1         -0.001             0.043             0.034
 Vibration     2          0.000             0.033             0.023
 Total                   -0.001             0.076             0.057

                          S(harm. osc.) =       3.182 cal/mol-Kelvin
 S(hin.)-S(harm. osc.)   Truhlar        Pitzer & Gwinn       McClurg 
                       cal/mol-Kelvin    cal/mol-Kelvin    cal/mol-Kelvin
 Vibration     1         -0.004             0.253             0.253
 Vibration     2         -0.002             0.199             0.199
 Multiplicity             0.000             0.000             0.000
 Total                   -0.006             0.452             0.452

                          Cv(harm. osc.) =       3.444 cal/mol-Kelvin
 Cv(hin.)-Cv(harm. osc)  Truhlar        Pitzer & Gwinn       McClurg 
                       cal/mol-Kelvin    cal/mol-Kelvin    cal/mol-Kelvin
 Vibration     1         -0.015             0.335             0.335
 Vibration     2         -0.008             0.278             0.278
 Total                   -0.023             0.613             0.613
 Harmonic frequencies (cm**-1), IR intensities (KM/Mole), Raman scattering
 activities (A**4/AMU), depolarization ratios for plane and unpolarized
 incident light, reduced masses (AMU), force constants (mDyne/A),
 and normal coordinates:
                     1                      2                      3
                    A2                     ?A                     ?B
 Frequencies --   245.0614               300.1505               374.8742
 Red. masses --     1.0279                 1.1355                 2.0663
 Frc consts  --     0.0364                 0.0603                 0.1711
 IR Inten    --     0.0000                 0.0002                 0.0477
  Atom  AN      X      Y      Z        X      Y      Z        X      Y      Z
     1   6     0.03   0.00   0.00     0.04   0.00   0.00     0.00   0.25   0.08
     2   6     0.00   0.00   0.00    -0.10   0.00   0.00     0.00   0.00  -0.25
     3   6    -0.03   0.00   0.00     0.04   0.00   0.00     0.00  -0.25   0.08
     4   1    -0.37   0.00   0.00     0.49   0.00   0.00     0.00  -0.03   0.50
     5   1     0.25   0.18   0.31    -0.11  -0.28  -0.23     0.01   0.55   0.11
     6   1     0.25  -0.18  -0.31    -0.11   0.28   0.23    -0.01   0.55   0.11
     7   1     0.00   0.01   0.00    -0.17   0.00  -0.10     0.02   0.00  -0.21
     8   1     0.00  -0.01   0.00    -0.17   0.00   0.10    -0.02   0.00  -0.21
     9   1     0.37   0.00   0.00     0.49   0.00   0.00     0.00   0.03   0.50
    10   1    -0.25   0.18  -0.31    -0.11   0.28  -0.23     0.01  -0.55   0.11
    11   1    -0.25  -0.18   0.31    -0.11  -0.28   0.23    -0.01  -0.55   0.11
                     4                      5                      6
                    ?C                     ?D                     ?E
 Frequencies --   756.1234               892.9146               915.1673
 Red. masses --     1.0792                 2.4740                 1.1028
 Frc consts  --     0.3635                 1.1622                 0.5442
 IR Inten    --     3.2569                 1.0406                 0.0000
  Atom  AN      X      Y      Z        X      Y      Z        X      Y      Z
     1   6    -0.02   0.00   0.00     0.00   0.33  -0.09     0.07   0.00   0.00
     2   6    -0.08   0.00   0.00     0.00   0.00   0.30     0.00   0.00   0.00
     3   6    -0.02   0.00   0.00     0.00  -0.33  -0.09    -0.07   0.00   0.00
     4   1     0.13   0.00   0.00     0.00   0.71  -0.64    -0.21   0.00   0.00
     5   1     0.14  -0.21   0.20    -0.04  -0.01  -0.17    -0.13   0.32  -0.25
     6   1     0.14   0.21  -0.20     0.04  -0.01  -0.17    -0.13  -0.32   0.25
     7   1     0.29   0.00   0.48     0.00   0.00   0.30     0.00   0.37   0.00
     8   1     0.29   0.00  -0.48     0.00   0.00   0.30     0.00  -0.37   0.00
     9   1     0.13   0.00   0.00     0.00  -0.71  -0.64     0.21   0.00   0.00
    10   1     0.14   0.21   0.20    -0.04   0.01  -0.17     0.13   0.32   0.25
    11   1     0.14  -0.21  -0.20     0.04   0.01  -0.17     0.13  -0.32  -0.25
                     7                      8                      9
                    ?F                     ?G                     ?H
 Frequencies --   941.7749              1080.2386              1184.5371
 Red. masses --     1.1836                 2.3422                 1.7971
 Frc consts  --     0.6185                 1.6103                 1.4857
 IR Inten    --     2.4023                 0.6885                 1.3421
  Atom  AN      X      Y      Z        X      Y      Z        X      Y      Z
     1   6     0.00   0.03   0.09     0.00  -0.20   0.16     0.00   0.05   0.17
     2   6     0.00   0.04   0.00     0.00   0.39   0.00     0.00   0.00  -0.25
     3   6     0.00   0.03  -0.09     0.00  -0.20  -0.16     0.00  -0.05   0.17
     4   1     0.00   0.35  -0.40     0.00  -0.24   0.21     0.00   0.40  -0.36
     5   1    -0.04  -0.35   0.01     0.03  -0.25   0.21    -0.09  -0.49   0.01
     6   1     0.04  -0.35   0.01    -0.03  -0.25   0.21     0.09  -0.49   0.01
     7   1     0.00  -0.23   0.00     0.00   0.84   0.00     0.02   0.00  -0.23
     8   1     0.00  -0.23   0.00     0.00   0.84   0.00    -0.02   0.00  -0.23
     9   1     0.00   0.35   0.40     0.00  -0.24  -0.21     0.00  -0.40  -0.36
    10   1     0.04  -0.35  -0.01    -0.03  -0.25  -0.21    -0.09   0.49   0.01
    11   1    -0.04  -0.35  -0.01     0.03  -0.25  -0.21     0.09   0.49   0.01
                    10                     11                     12
                    ?I                     ?E                     ?J
 Frequencies --  1216.0077              1324.0594              1371.6355
 Red. masses --     1.6548                 1.1234                 1.3677
 Frc consts  --     1.4416                 1.1603                 1.5161
 IR Inten    --     0.2318                 0.0000                 0.5070
  Atom  AN      X      Y      Z        X      Y      Z        X      Y      Z
     1   6     0.15   0.00   0.00    -0.08   0.00   0.00     0.00   0.00  -0.07
     2   6    -0.23   0.00   0.00     0.00   0.00   0.00     0.00   0.19   0.00
     3   6     0.15   0.00   0.00     0.08   0.00   0.00     0.00   0.00   0.07
     4   1    -0.30   0.00   0.00     0.11   0.00   0.00     0.00  -0.24   0.27
     5   1    -0.12   0.31  -0.34     0.04  -0.13   0.15     0.14  -0.11   0.14
     6   1    -0.12  -0.31   0.34     0.04   0.13  -0.15    -0.14  -0.11   0.14
     7   1     0.13   0.00   0.47     0.00   0.68   0.00     0.00  -0.66   0.00
     8   1     0.13   0.00  -0.47     0.00  -0.68   0.00     0.00  -0.66   0.00
     9   1    -0.30   0.00   0.00    -0.11   0.00   0.00     0.00  -0.24  -0.27
    10   1    -0.12  -0.31  -0.34    -0.04  -0.13  -0.15    -0.14  -0.11  -0.14
    11   1    -0.12   0.31   0.34    -0.04   0.13   0.15     0.14  -0.11  -0.14
                    13                     14                     15
                    ?J                     ?K                     A1
 Frequencies --  1413.9106              1425.1078              1499.3779
 Red. masses --     1.3626                 1.2424                 1.0436
 Frc consts  --     1.6049                 1.4866                 1.3823
 IR Inten    --     8.2126                 5.2428                 0.0047
  Atom  AN      X      Y      Z        X      Y      Z        X      Y      Z
     1   6     0.00   0.12  -0.04     0.00  -0.09   0.07     0.00   0.01   0.01
     2   6     0.00  -0.11   0.00     0.00   0.00  -0.01     0.00   0.00  -0.05
     3   6     0.00   0.12   0.04     0.00   0.09   0.07     0.00  -0.01   0.01
     4   1     0.00  -0.17   0.36     0.00   0.23  -0.38     0.00  -0.09   0.15
     5   1     0.10  -0.44   0.09    -0.18   0.38  -0.17    -0.16  -0.05  -0.22
     6   1    -0.10  -0.44   0.09     0.18   0.38  -0.17     0.16  -0.05  -0.22
     7   1     0.00   0.29   0.00    -0.01   0.00  -0.03     0.36   0.00   0.45
     8   1     0.00   0.29   0.00     0.01   0.00  -0.03    -0.36   0.00   0.45
     9   1     0.00  -0.17  -0.36     0.00  -0.23  -0.38     0.00   0.09   0.15
    10   1    -0.10  -0.44  -0.09    -0.18  -0.38  -0.17    -0.16   0.05  -0.22
    11   1     0.10  -0.44  -0.09     0.18  -0.38  -0.17     0.16   0.05  -0.22
                    16                     17                     18
                    A2                     ?L                     ?L
 Frequencies --  1501.8123              1503.5373              1520.3488
 Red. masses --     1.0373                 1.0520                 1.0841
 Frc consts  --     1.3784                 1.4012                 1.4763
 IR Inten    --     0.0000                 3.0041                 7.7768
  Atom  AN      X      Y      Z        X      Y      Z        X      Y      Z
     1   6     0.04   0.00   0.00     0.00   0.01   0.03     0.00   0.02   0.02
     2   6     0.00   0.00   0.00     0.00   0.04   0.00     0.00   0.00   0.07
     3   6    -0.04   0.00   0.00     0.00   0.01  -0.03     0.00  -0.02   0.02
     4   1    -0.51   0.00   0.00     0.00  -0.14   0.23     0.00  -0.13   0.22
     5   1    -0.04  -0.34  -0.10    -0.28  -0.08  -0.37    -0.22  -0.08  -0.30
     6   1    -0.04   0.34   0.10     0.28  -0.08  -0.37     0.22  -0.08  -0.30
     7   1     0.00   0.05   0.00     0.00  -0.09   0.00    -0.28   0.00  -0.32
     8   1     0.00  -0.05   0.00     0.00  -0.09   0.00     0.28   0.00  -0.32
     9   1     0.51   0.00   0.00     0.00  -0.14  -0.23     0.00   0.13   0.22
    10   1     0.04  -0.34   0.10     0.28  -0.08   0.37    -0.22   0.08  -0.30
    11   1     0.04   0.34  -0.10    -0.28  -0.08   0.37     0.22   0.08  -0.30
                    19                     20                     21
                    B1                     B2                     A1
 Frequencies --  1520.5797              3053.5910              3054.9444
 Red. masses --     1.0403                 1.0356                 1.0386
 Frc consts  --     1.4171                 5.6893                 5.7107
 IR Inten    --    17.8382                28.2502                 7.1519
  Atom  AN      X      Y      Z        X      Y      Z        X      Y      Z
     1   6    -0.03   0.00   0.00     0.00   0.03  -0.03     0.00  -0.02   0.03
     2   6    -0.03   0.00   0.00     0.00   0.00   0.00     0.00   0.00  -0.02
     3   6    -0.03   0.00   0.00     0.00   0.03   0.03     0.00   0.02   0.03
     4   1     0.51   0.00   0.00     0.00  -0.29  -0.21     0.00   0.27   0.19
     5   1     0.03   0.35   0.09    -0.36   0.00   0.26     0.35   0.01  -0.25
     6   1     0.03  -0.35  -0.09     0.36   0.00   0.26    -0.35   0.01  -0.25
     7   1     0.00   0.00   0.04     0.00   0.00   0.00    -0.15   0.00   0.11
     8   1     0.00   0.00  -0.04     0.00   0.00   0.00     0.15   0.00   0.11
     9   1     0.51   0.00   0.00     0.00  -0.29   0.21     0.00  -0.27   0.19
[...]
 Vibration     2          0.000             0.033             0.023
 Total                   -0.001             0.076             0.057

                          S(harm. osc.) =       3.182 cal/mol-Kelvin
 S(hin.)-S(harm. osc.)   Truhlar        Pitzer & Gwinn       McClurg 
                       cal/mol-Kelvin    cal/mol-Kelvin    cal/mol-Kelvin
 Vibration     1         -0.004             0.253             0.253
 Vibration     2         -0.002             0.199             0.199
 Multiplicity             0.000             0.000             0.000
 Total                   -0.006             0.452             0.452

                          Cv(harm. osc.) =       3.444 cal/mol-Kelvin
 Cv(hin.)-Cv(harm. osc)  Truhlar        Pitzer & Gwinn       McClurg 
                       cal/mol-Kelvin    cal/mol-Kelvin    cal/mol-Kelvin
 Vibration     1         -0.015             0.335             0.335
 Vibration     2         -0.008             0.278             0.278
 Total                   -0.023             0.613             0.613
 Harmonic frequencies (cm**-1), IR intensities (KM/Mole), Raman scattering
 activities (A**4/AMU), depolarization ratios for plane and unpolarized
 incident light, reduced masses (AMU), force constants (mDyne/A),
 and normal coordinates:
                     1                      2                      3
                    A2                     ?A                     ?B
 Frequencies --   245.0614               300.1505               374.8742
 Red. masses --     1.0279                 1.1355                 2.0663
 Frc consts  --     0.0364                 0.0603                 0.1711
 IR Inten    --     0.0000                 0.0002                 0.0477
  Atom  AN      X      Y      Z        X      Y      Z        X      Y      Z
     1   6     0.03   0.00   0.00     0.04   0.00   0.00     0.00   0.25   0.08
     2   6     0.00   0.00   0.00    -0.10   0.00   0.00     0.00   0.00  -0.25
     3   6    -0.03   0.00   0.00     0.04   0.00   0.00     0.00  -0.25   0.08
     4   1    -0.37   0.00   0.00     0.49   0.00   0.00     0.00  -0.03   0.50
     5   1     0.25   0.18   0.31    -0.11  -0.28  -0.23     0.01   0.55   0.11
     6   1     0.25  -0.18  -0.31    -0.11   0.28   0.23    -0.01   0.55   0.11
     7   1     0.00   0.01   0.00    -0.17   0.00  -0.10     0.02   0.00  -0.21
     8   1     0.00  -0.01   0.00    -0.17   0.00   0.10    -0.02   0.00  -0.21
     9   1     0.37   0.00   0.00     0.49   0.00   0.00     0.00   0.03   0.50
    10   1    -0.25   0.18  -0.31    -0.11   0.28  -0.23     0.01  -0.55   0.11
    11   1    -0.25  -0.18   0.31    -0.11  -0.28   0.23    -0.01  -0.55   0.11
                     4                      5                      6
                    ?C                     ?D                     ?E
 Frequencies --   756.1234               892.9146               915.1673
 Red. masses --     1.0792                 2.4740                 1.1028
 Frc consts  --     0.3635                 1.1622                 0.5442
 IR Inten    --     3.2569                 1.0406                 0.0000
  Atom  AN      X      Y      Z        X      Y      Z        X      Y      Z
     1   6    -0.02   0.00   0.00     0.00   0.33  -0.09     0.07   0.00   0.00
     2   6    -0.08   0.00   0.00     0.00   0.00   0.30     0.00   0.00   0.00
     3   6    -0.02   0.00   0.00     0.00  -0.33  -0.09    -0.07   0.00   0.00
     4   1     0.13   0.00   0.00     0.00   0.71  -0.64    -0.21   0.00   0.00
     5   1     0.14  -0.21   0.20    -0.04  -0.01  -0.17    -0.13   0.32  -0.25
     6   1     0.14   0.21  -0.20     0.04  -0.01  -0.17    -0.13  -0.32   0.25
     7   1     0.29   0.00   0.48     0.00   0.00   0.30     0.00   0.37   0.00
     8   1     0.29   0.00  -0.48     0.00   0.00   0.30     0.00  -0.37   0.00
     9   1     0.13   0.00   0.00     0.00  -0.71  -0.64     0.21   0.00   0.00
    10   1     0.14   0.21   0.20    -0.04   0.01  -0.17     0.13   0.32   0.25
    11   1     0.14  -0.21  -0.20     0.04   0.01  -0.17     0.13  -0.32  -0.25
                     7                      8                      9
                    ?F                     ?G                     ?H
 Frequencies --   941.7749              1080.2386              1184.5371
 Red. masses --     1.1836                 2.3422                 1.7971
 Frc consts  --     0.6185                 1.6103                 1.4857
 IR Inten    --     2.4023                 0.6885                 1.3421
  Atom  AN      X      Y      Z        X      Y      Z        X      Y      Z
     1   6     0.00   0.03   0.09     0.00  -0.20   0.16     0.00   0.05   0.17
     2   6     0.00   0.04   0.00     0.00   0.39   0.00     0.00   0.00  -0.25
     3   6     0.00   0.03  -0.09     0.00  -0.20  -0.16     0.00  -0.05   0.17
     4   1     0.00   0.35  -0.40     0.00  -0.24   0.21     0.00   0.40  -0.36
     5   1    -0.04  -0.35   0.01     0.03  -0.25   0.21    -0.09  -0.49   0.01
     6   1     0.04  -0.35   0.01    -0.03  -0.25   0.21     0.09  -0.49   0.01
     7   1     0.00  -0.23   0.00     0.00   0.84   0.00     0.02   0.00  -0.23
     8   1     0.00  -0.23   0.00     0.00   0.84   0.00    -0.02   0.00  -0.23
     9   1     0.00   0.35   0.40     0.00  -0.24  -0.21     0.00  -0.40  -0.36
    10   1     0.04  -0.35  -0.01    -0.03  -0.25  -0.21    -0.09   0.49   0.01
    11   1    -0.04  -0.35  -0.01     0.03  -0.25  -0.21     0.09   0.49   0.01
                    10                     11                     12
                    ?I                     ?E                     ?J
 Frequencies --  1216.0077              1324.0594              1371.6355
 Red. masses --     1.6548                 1.1234                 1.3677
 Frc consts  --     1.4416                 1.1603                 1.5161
 IR Inten    --     0.2318                 0.0000                 0.5070
  Atom  AN      X      Y      Z        X      Y      Z        X      Y      Z
     1   6     0.15   0.00   0.00    -0.08   0.00   0.00     0.00   0.00  -0.07
     2   6    -0.23   0.00   0.00     0.00   0.00   0.00     0.00   0.19   0.00
     3   6     0.15   0.00   0.00     0.08   0.00   0.00     0.00   0.00   0.07
     4   1    -0.30   0.00   0.00     0.11   0.00   0.00     0.00  -0.24   0.27
     5   1    -0.12   0.31  -0.34     0.04  -0.13   0.15     0.14  -0.11   0.14
     6   1    -0.12  -0.31   0.34     0.04   0.13  -0.15    -0.14  -0.11   0.14
     7   1     0.13   0.00   0.47     0.00   0.68   0.00     0.00  -0.66   0.00
     8   1     0.13   0.00  -0.47     0.00  -0.68   0.00     0.00  -0.66   0.00
     9   1    -0.30   0.00   0.00    -0.11   0.00   0.00     0.00  -0.24  -0.27
    10   1    -0.12  -0.31  -0.34    -0.04  -0.13  -0.15    -0.14  -0.11  -0.14
    11   1    -0.12   0.31   0.34    -0.04   0.13   0.15     0.14  -0.11  -0.14
                    13                     14                     15
                    ?J                     ?K                     A1
 Frequencies --  1413.9106              1425.1078              1499.3779
 Red. masses --     1.3626                 1.2424                 1.0436
 Frc consts  --     1.6049                 1.4866                 1.3823
 IR Inten    --     8.2126                 5.2428                 0.0047
  Atom  AN      X      Y      Z        X      Y      Z        X      Y      Z
     1   6     0.00   0.12  -0.04     0.00  -0.09   0.07     0.00   0.01   0.01
     2   6     0.00  -0.11   0.00     0.00   0.00  -0.01     0.00   0.00  -0.05
     3   6     0.00   0.12   0.04     0.00   0.09   0.07     0.00  -0.01   0.01
     4   1     0.00  -0.17   0.36     0.00   0.23  -0.38     0.00  -0.09   0.15
     5   1     0.10  -0.44   0.09    -0.18   0.38  -0.17    -0.16  -0.05  -0.22
     6   1    -0.10  -0.44   0.09     0.18   0.38  -0.17     0.16  -0.05  -0.22
     7   1     0.00   0.29   0.00    -0.01   0.00  -0.03     0.36   0.00   0.45
     8   1     0.00   0.29   0.00     0.01   0.00  -0.03    -0.36   0.00   0.45
     9   1     0.00  -0.17  -0.36     0.00  -0.23  -0.38     0.00   0.09   0.15
    10   1    -0.10  -0.44  -0.09    -0.18  -0.38  -0.17    -0.16   0.05  -0.22
    11   1     0.10  -0.44  -0.09     0.18  -0.38  -0.17     0.16   0.05  -0.22
                    16                     17                     18
                    A2                     ?L                     ?L
 Frequencies --  1501.8123              1503.5373              1520.3488
 Red. masses --     1.0373                 1.0520                 1.0841
 Frc consts  --     1.3784                 1.4012                 1.4763
 IR Inten    --     0.0000                 3.0041                 7.7768
  Atom  AN      X      Y      Z        X      Y      Z        X      Y      Z
     1   6     0.04   0.00   0.00     0.00   0.01   0.03     0.00   0.02   0.02
     2   6     0.00   0.00   0.00     0.00   0.04   0.00     0.00   0.00   0.07
     3   6    -0.04   0.00   0.00     0.00   0.01  -0.03     0.00  -0.02   0.02
     4   1    -0.51   0.00   0.00     0.00  -0.14   0.23     0.00  -0.13   0.22
     5   1    -0.04  -0.34  -0.10    -0.28  -0.08  -0.37    -0.22  -0.08  -0.30
     6   1    -0.04   0.34   0.10     0.28  -0.08  -0.37     0.22  -0.08  -0.30
     7   1     0.00   0.05   0.00     0.00  -0.09   0.00    -0.28   0.00  -0.32
     8   1     0.00  -0.05   0.00     0.00  -0.09   0.00     0.28   0.00  -0.32
     9   1     0.51   0.00   0.00     0.00  -0.14  -0.23     0.00   0.13   0.22
    10   1     0.04  -0.34   0.10     0.28  -0.08   0.37    -0.22   0.08  -0.30
    11   1     0.04   0.34  -0.10    -0.28  -0.08   0.37     0.22   0.08  -0.30
                    19                     20                     21
                    B1                     B2                     A1
 Frequencies --  1520.5797              3053.5910              3054.9444
 Red. masses --     1.0403                 1.0356                 1.0386
 Frc consts  --     1.4171                 5.6893                 5.7107
 IR Inten    --    17.8382                28.2502                 7.1519
  Atom  AN      X      Y      Z        X      Y      Z        X      Y      Z
     1   6    -0.03   0.00   0.00     0.00   0.03  -0.03     0.00  -0.02   0.03
     2   6    -0.03   0.00   0.00     0.00   0.00   0.00     0.00   0.00  -0.02
     3   6    -0.03   0.00   0.00     0.00   0.03   0.03     0.00   0.02   0.03
     4   1     0.51   0.00   0.00     0.00  -0.29  -0.21     0.00   0.27   0.19
     5   1     0.03   0.35   0.09    -0.36   0.00   0.26     0.35   0.01  -0.25
     6   1     0.03  -0.35  -0.09     0.36   0.00   0.26    -0.35   0.01  -0.25
     7   1     0.00   0.00   0.04     0.00   0.00   0.00    -0.15   0.00   0.11
     8   1     0.00   0.00  -0.04     0.00   0.00   0.00     0.15   0.00   0.11
     9   1     0.51   0.00   0.00     0.00  -0.29   0.21     0.00  -0.27   0.19
    10   1     0.03  -0.35   0.09     0.36   0.00  -0.26     0.35  -0.01  -0.25
    11   1     0.03   0.35  -0.09    -0.36   0.00  -0.26    -0.35  -0.01  -0.25
                    22                     23                     24
                    ?L                     ?A                     ?E
 Frequencies --  3063.0242              3091.4127              3120.9613
 Red. masses --     1.0582                 1.1024                 1.1028
 Frc consts  --     5.8494                 6.2072                 6.3287
 IR Inten    --    34.0694                 1.3576                 0.0000
  Atom  AN      X      Y      Z        X      Y      Z        X      Y      Z
     1   6     0.00  -0.01   0.00     0.03   0.00   0.00    -0.07   0.00   0.00
     2   6     0.00   0.00   0.07    -0.09   0.00   0.00     0.00   0.00   0.00
     3   6     0.00   0.01   0.00     0.03   0.00   0.00     0.07   0.00   0.00
     4   1     0.00   0.15   0.11     0.01   0.00   0.00    -0.02   0.00   0.00
     5   1     0.07   0.00  -0.05    -0.20   0.00   0.15     0.42   0.01  -0.31
     6   1    -0.07   0.00  -0.05    -0.20   0.00  -0.15     0.42  -0.01   0.31
     7   1     0.56   0.00  -0.40     0.52   0.00  -0.39     0.00   0.00   0.00
     8   1    -0.56   0.00  -0.40     0.52   0.00   0.39     0.00   0.00   0.00
     9   1     0.00  -0.15   0.11     0.01   0.00   0.00     0.02   0.00   0.00
    10   1     0.07   0.00  -0.05    -0.20   0.00   0.15    -0.42   0.01   0.31
    11   1    -0.07   0.00  -0.05    -0.20   0.00  -0.15    -0.42  -0.01  -0.31
                    25                     26                     27
                    ?A                     ?L                     ?L
 Frequencies --  3131.9340              3134.1819              3136.1174
 Red. masses --     1.1035                 1.1025                 1.1014
 Frc consts  --     6.3772                 6.3807                 6.3824
 IR Inten    --    73.9517                24.4056                34.9781
  Atom  AN      X      Y      Z        X      Y      Z        X      Y      Z
     1   6     0.06   0.00   0.00     0.00  -0.04  -0.05     0.00  -0.04  -0.05
     2   6     0.05   0.00   0.00     0.00   0.00   0.00     0.00   0.00  -0.01
     3   6     0.06   0.00   0.00     0.00  -0.04   0.05     0.00   0.04  -0.05
     4   1     0.01   0.00   0.00     0.00   0.53   0.37     0.00   0.52   0.36
     5   1    -0.37  -0.01   0.27    -0.21  -0.01   0.14    -0.21  -0.01   0.14
     6   1    -0.37   0.01  -0.27     0.21  -0.01   0.14     0.21  -0.01   0.14
     7   1    -0.28   0.00   0.22     0.00   0.00   0.00    -0.09   0.00   0.06
     8   1    -0.28   0.00  -0.22     0.00   0.00   0.00     0.09   0.00   0.06
     9   1     0.01   0.00   0.00     0.00   0.53  -0.37     0.00  -0.52   0.36
    10   1    -0.37   0.01   0.27     0.21  -0.01  -0.14    -0.21   0.01   0.14
    11   1    -0.37  -0.01  -0.27    -0.21  -0.01  -0.14     0.21   0.01   0.14

 -------------------
 - Thermochemistry -
 -------------------
 Temperature   298.150 Kelvin.  Pressure   0.987 Atm.
 Atom     1 has atomic number  6 and mass  12.00000
 Atom     2 has atomic number  6 and mass  12.00000
 Atom     3 has atomic number  6 and mass  12.00000
 Atom     4 has atomic number  1 and mass   1.00783
 Atom     5 has atomic number  1 and mass   1.00783
 Atom     6 has atomic number  1 and mass   1.00783
 Atom     7 has atomic number  1 and mass   1.00783
 Atom     8 has atomic number  1 and mass   1.00783
 Atom     9 has atomic number  1 and mass   1.00783
 Atom    10 has atomic number  1 and mass   1.00783
 Atom    11 has atomic number  1 and mass   1.00783
 Molecular mass:    44.06260 amu.
 Principal axes and moments of inertia in atomic units:
                           1         2         3
     Eigenvalues --    61.56530 212.19373 240.28408
           X            0.00000   0.00000   1.00000
           Y            1.00000   0.00000   0.00000
           Z            0.00000   1.00000   0.00000
 This molecule is an asymmetric top.
 Rotational symmetry number  2.
 Rotational temperatures (Kelvin)      1.40686     0.40818     0.36046
 Rotational constants (GHZ):          29.31426     8.50516     7.51086
 Zero-point vibrational energy     273785.6 (Joules/Mol)
                                   65.43634 (Kcal/Mol)
 Warning -- explicit consideration of   3 degrees of freedom as
           vibrations may cause significant error
 Identified internal rotation modes:
   34   2
 Vibrational temperatures:    352.59   431.85   539.36  1087.89  1284.70
          (Kelvin)           1316.72  1355.00  1554.22  1704.28  1749.56
                             1905.02  1973.48  2034.30  2050.41  2157.27
                             2160.77  2163.25  2187.44  2187.77  4393.43
                             4395.38  4407.00  4447.85  4490.36  4506.15
                             4509.38  4512.17
 
 Zero-point correction=                           0.104279 (Hartree/Particle)
 Thermal correction to Energy=                    0.108721
 Thermal correction to Enthalpy=                  0.109665
 Thermal correction to Gibbs Free Energy=         0.079372
 Sum of electronic and zero-point Energies=           -118.996391
 Sum of electronic and thermal Energies=              -118.991949
 Sum of electronic and thermal Enthalpies=            -118.991005
 Sum of electronic and thermal Free Energies=         -119.021298
 
                     E (Thermal)             CV                S
                      KCal/Mol        Cal/Mol-Kelvin    Cal/Mol-Kelvin
 Total                   68.223             14.613             63.757
 Corrected for 
 internal rot.           68.280             15.226             64.209
 Electronic               0.000              0.000              0.000
 Translational            0.889              2.981             37.301
 Rotational               0.889              2.981             21.289
 Vibrational             66.446              8.651              5.166
 Vibration     1          0.660              1.771              1.766
 Vibration     2          0.693              1.673              1.416
 Vibration     3          0.746              1.524              1.060
                       Q            Log10(Q)             Ln(Q)
 Total Bot       0.309978D-36        -36.508669        -84.064316
 Corrected for 
 Internal rot.   0.353685D-36        -36.451384        -83.932413
 Total V=0       0.286052D+12         11.456445         26.379439
 Corrected for 
 Internal rot.   0.326384D+12         11.513729         26.511342
 Vib (Bot)       0.265363D-47        -47.576160       -109.548157
 Vib (Bot)    1  0.798268D+00         -0.097851         -0.225311
 Vib (Bot)    2  0.633551D+00         -0.198218         -0.456415
 Vib (Bot)    3  0.484031D+00         -0.315127         -0.725606
 Vib (V=0)       0.244880D+01          0.388953          0.895597
 Vib (V=0)    1  0.144193D+01          0.158944          0.365982
 Vib (V=0)    2  0.130709D+01          0.116304          0.267800
 Vib (V=0)    3  0.119591D+01          0.077697          0.178905
 Electronic      0.100000D+01          0.000000          0.000000
 Translational   0.116487D+08          7.066278         16.270707
 Rotational      0.100280D+05          4.001213          9.213134
 ***** Axes restored to original set *****
 -------------------------------------------------------------------
 Center     Atomic                   Forces (Hartrees/Bohr)
 Number     Number              X              Y              Z
 -------------------------------------------------------------------
      1        6           0.000033383    0.000125029    0.000000000
      2        6           0.000000000   -0.000179635    0.000000000
      3        6          -0.000033383    0.000125030    0.000000000
      4        1           0.000000692   -0.000051327    0.000000000
      5        1          -0.000025643   -0.000012676    0.000007891
      6        1          -0.000025643   -0.000012676   -0.000007891
      7        1           0.000000000    0.000041466    0.000013171
      8        1           0.000000000    0.000041466   -0.000013171
      9        1          -0.000000692   -0.000051327    0.000000000
     10        1           0.000025643   -0.000012676    0.000007891
     11        1           0.000025643   -0.000012676   -0.000007891
 -------------------------------------------------------------------
 Cartesian Forces:  Max     0.000179635 RMS     0.000048723

 This type of calculation cannot be archived.


 Age does not diminish the extreme disappointment of
 having a scoop of ice cream fall from the cone.
 -- Jim Fiebig
 Job cpu time:  0 days  0 hours  0 minutes  0.2 seconds.
 File lengths (MBytes):  RWF=      5 Int=      0 D2E=      0 Chk=      2 Scr=      1
 Normal termination of Gaussian 09 at Thu Mar 17 11:55:40 2022.
