 Entering Gaussian System, Link 0=g16
 Initial command:
 /software//g16/l1.exe "/home/tmp/g16/Gau-460745.inp" -scrdir="/home/tmp/g16/"
 Entering Link 1 = /software//g16/l1.exe PID=    460754.
  
 Copyright (c) 1988-2019, Gaussian, Inc.  All Rights Reserved.
  
 This is part of the Gaussian(R) 16 program.  It is based on
 the Gaussian(R) 09 system (copyright 2009, Gaussian, Inc.),
 the Gaussian(R) 03 system (copyright 2003, Gaussian, Inc.),
 the Gaussian(R) 98 system (copyright 1998, Gaussian, Inc.),
 the Gaussian(R) 94 system (copyright 1995, Gaussian, Inc.),
 the Gaussian 92(TM) system (copyright 1992, Gaussian, Inc.),
 the Gaussian 90(TM) system (copyright 1990, Gaussian, Inc.),
 the Gaussian 88(TM) system (copyright 1988, Gaussian, Inc.),
 the Gaussian 86(TM) system (copyright 1986, Carnegie Mellon
 University), and the Gaussian 82(TM) system (copyright 1983,
 Carnegie Mellon University). Gaussian is a federally registered
 trademark of Gaussian, Inc.
  
 This software contains proprietary and confidential information,
 including trade secrets, belonging to Gaussian, Inc.
  
 This software is provided under written license and may be
 used, copied, transmitted, or stored only in accord with that
 written license.
  
 The following legend is applicable only to US Government
 contracts under FAR:
  
                    RESTRICTED RIGHTS LEGEND
  
 Use, reproduction and disclosure by the US Government is
 subject to restrictions as set forth in subparagraphs (a)
 and (c) of the Commercial Computer Software - Restricted
 Rights clause in FAR 52.227-19.
  
 Gaussian, Inc.
 340 Quinnipiac St., Bldg. 40, Wallingford CT 06492
  
  
 ---------------------------------------------------------------
 Warning -- This program may not be used in any manner that
 competes with the business of Gaussian, Inc. or will provide
 assistance to any competitor of Gaussian, Inc.  The licensee
 of this program is prohibited from giving any competitor of
 Gaussian, Inc. access to this program.  By using this program,
 the user acknowledges that Gaussian, Inc. is engaged in the
 business of creating and licensing software in the field of
 computational chemistry and represents and warrants to the
 licensee that it is not a competitor of Gaussian, Inc. and that
 it will not use this program in any manner prohibited above.
 ---------------------------------------------------------------
  

 Cite this work as:
 Gaussian 16, Revision C.01,
 M. J. Frisch, G. W. Trucks, H. B. Schlegel, G. E. Scuseria, 
 M. A. Robb, J. R. Cheeseman, G. Scalmani, V. Barone, 
 G. A. Petersson, H. Nakatsuji, X. Li, M. Caricato, A. V. Marenich, 
 J. Bloino, B. G. Janesko, R. Gomperts, B. Mennucci, H. P. Hratchian, 
 J. V. Ortiz, A. F. Izmaylov, J. L. Sonnenberg, D. Williams-Young, 
 F. Ding, F. Lipparini, F. Egidi, J. Goings, B. Peng, A. Petrone, 
 T. Henderson, D. Ranasinghe, V. G. Zakrzewski, J. Gao, N. Rega, 
 G. Zheng, W. Liang, M. Hada, M. Ehara, K. Toyota, R. Fukuda, 
 J. Hasegawa, M. Ishida, T. Nakajima, Y. Honda, O. Kitao, H. Nakai, 
 T. Vreven, K. Throssell, J. A. Montgomery, Jr., J. E. Peralta, 
 F. Ogliaro, M. J. Bearpark, J. J. Heyd, E. N. Brothers, K. N. Kudin, 
 V. N. Staroverov, T. A. Keith, R. Kobayashi, J. Normand, 
 K. Raghavachari, A. P. Rendell, J. C. Burant, S. S. Iyengar, 
 J. Tomasi, M. Cossi, J. M. Millam, M. Klene, C. Adamo, R. Cammi, 
 J. W. Ochterski, R. L. Martin, K. Morokuma, O. Farkas, 
 J. B. Foresman, and D. J. Fox, Gaussian, Inc., Wallingford CT, 2019.
 
 ******************************************
 Gaussian 16:  ES64L-G16RevC.01  3-Jul-2019
                25-Jul-2022 
 ******************************************
 %nprocshared=8
 Will use up to    8 processors via shared memory.
 %chk=CCC.chk
 ----------------------------------------------------------------------
 # opt freq=hinderedrotor M062X/6-311++g(d,p) symm=veryloose press=0.98
 7
 ----------------------------------------------------------------------
 1/18=20,19=15,26=3,38=1,113=-987000/1,3;
 2/9=110,12=2,17=2,18=2,40=1/2;
 3/5=4,6=6,7=1111,11=2,25=1,30=1,71=1,74=-55/1,2,3;
 4//1;
 5/5=2,38=5/2;
 6/7=2,8=2,9=2,10=2,28=1/1;
 7//1,2,3,16;
 1/18=20,19=15,26=3/3(2);
 2/9=110/2;
 99//99;
 2/9=110/2;
 3/5=4,6=6,7=1111,11=2,25=1,30=1,71=1,74=-55/1,2,3;
 4/5=5,16=3,69=1/1;
 5/5=2,38=5/2;
 7//1,2,3,16;
 1/18=20,19=15,26=3/3(-5);
 2/9=110/2;
 6/7=2,8=2,9=2,10=2,19=2,28=1/1;
 99/9=1/99;
 -----
 CCC_1
 -----
 Symbolic Z-matrix:
 Charge =  0 Multiplicity = 1
 C                     1.01136   0.04999   0.07274 
 C                     2.53052   0.04743   0.09775 
 C                     3.0606   -0.09762   1.51424 
 H                     0.64752   0.15514  -0.9542 
 H                     0.61189   0.8813    0.66223 
 H                     0.61189  -0.88355   0.48151 
 H                     2.90535   0.97929  -0.33968 
 H                     2.90535  -0.77644  -0.51947 
 H                     2.72071   0.72941   2.14564 
 H                     4.15515  -0.09751   1.51318 
 H                     2.72071  -1.03545   1.96492 
 

 GradGradGradGradGradGradGradGradGradGradGradGradGradGradGradGradGradGrad
 Berny optimization.
 Initialization pass.
                           ----------------------------
                           !    Initial Parameters    !
                           ! (Angstroms and Degrees)  !
 --------------------------                            --------------------------
 ! Name  Definition              Value          Derivative Info.                !
 --------------------------------------------------------------------------------
 ! R1    R(1,2)                  1.5194         estimate D2E/DX2                !
 ! R2    R(1,4)                  1.0946         estimate D2E/DX2                !
 ! R3    R(1,5)                  1.0946         estimate D2E/DX2                !
 ! R4    R(1,6)                  1.0946         estimate D2E/DX2                !
 ! R5    R(2,3)                  1.5194         estimate D2E/DX2                !
 ! R6    R(2,7)                  1.0955         estimate D2E/DX2                !
 ! R7    R(2,8)                  1.0955         estimate D2E/DX2                !
 ! R8    R(3,9)                  1.0946         estimate D2E/DX2                !
 ! R9    R(3,10)                 1.0946         estimate D2E/DX2                !
 ! R10   R(3,11)                 1.0946         estimate D2E/DX2                !
 ! A1    A(2,1,4)              110.3632         estimate D2E/DX2                !
 ! A2    A(2,1,5)              110.9351         estimate D2E/DX2                !
 ! A3    A(2,1,6)              110.9351         estimate D2E/DX2                !
 ! A4    A(4,1,5)              108.1199         estimate D2E/DX2                !
 ! A5    A(4,1,6)              108.119          estimate D2E/DX2                !
 ! A6    A(5,1,6)              108.2651         estimate D2E/DX2                !
 ! A7    A(1,2,3)              111.3671         estimate D2E/DX2                !
 ! A8    A(1,2,7)              109.5172         estimate D2E/DX2                !
 ! A9    A(1,2,8)              109.517          estimate D2E/DX2                !
 ! A10   A(3,2,7)              109.5169         estimate D2E/DX2                !
 ! A11   A(3,2,8)              109.5168         estimate D2E/DX2                !
 ! A12   A(7,2,8)              107.3165         estimate D2E/DX2                !
 ! A13   A(2,3,9)              110.9349         estimate D2E/DX2                !
 ! A14   A(2,3,10)             110.3632         estimate D2E/DX2                !
 ! A15   A(2,3,11)             110.9352         estimate D2E/DX2                !
 ! A16   A(9,3,10)             108.1192         estimate D2E/DX2                !
 ! A17   A(9,3,11)             108.2654         estimate D2E/DX2                !
 ! A18   A(10,3,11)            108.1194         estimate D2E/DX2                !
 ! D1    D(4,1,2,3)           -179.9995         estimate D2E/DX2                !
 ! D2    D(4,1,2,7)             58.7161         estimate D2E/DX2                !
 ! D3    D(4,1,2,8)            -58.7152         estimate D2E/DX2                !
 ! D4    D(5,1,2,3)             60.1869         estimate D2E/DX2                !
 ! D5    D(5,1,2,7)            -61.0976         estimate D2E/DX2                !
 ! D6    D(5,1,2,8)           -178.5288         estimate D2E/DX2                !
 ! D7    D(6,1,2,3)            -60.1869         estimate D2E/DX2                !
 ! D8    D(6,1,2,7)            178.5286         estimate D2E/DX2                !
 ! D9    D(6,1,2,8)             61.0974         estimate D2E/DX2                !
 ! D10   D(1,2,3,9)            -60.1873         estimate D2E/DX2                !
 ! D11   D(1,2,3,10)          -180.0            estimate D2E/DX2                !
 ! D12   D(1,2,3,11)            60.187          estimate D2E/DX2                !
 ! D13   D(7,2,3,9)             61.0974         estimate D2E/DX2                !
 ! D14   D(7,2,3,10)           -58.7153         estimate D2E/DX2                !
 ! D15   D(7,2,3,11)          -178.5284         estimate D2E/DX2                !
 ! D16   D(8,2,3,9)            178.5284         estimate D2E/DX2                !
 ! D17   D(8,2,3,10)            58.7157         estimate D2E/DX2                !
 ! D18   D(8,2,3,11)           -61.0974         estimate D2E/DX2                !
 --------------------------------------------------------------------------------
 Trust Radius=3.00D-01 FncErr=1.00D-07 GrdErr=1.00D-06 EigMax=2.50D+02 EigMin=1.00D-04
 Number of steps in this run=     56 maximum allowed number of steps=    100.
 GradGradGradGradGradGradGradGradGradGradGradGradGradGradGradGradGradGrad

                          Input orientation:                          
 ---------------------------------------------------------------------
 Center     Atomic      Atomic             Coordinates (Angstroms)
 Number     Number       Type             X           Y           Z
 ---------------------------------------------------------------------
      1          6           0        1.011360    0.049990    0.072740
      2          6           0        2.530520    0.047430    0.097750
      3          6           0        3.060600   -0.097620    1.514240
      4          1           0        0.647520    0.155140   -0.954200
      5          1           0        0.611890    0.881300    0.662230
      6          1           0        0.611890   -0.883550    0.481510
      7          1           0        2.905350    0.979290   -0.339680
      8          1           0        2.905350   -0.776440   -0.519470
      9          1           0        2.720710    0.729410    2.145640
     10          1           0        4.155150   -0.097510    1.513180
     11          1           0        2.720710   -1.035450    1.964920
 ---------------------------------------------------------------------
                    Distance matrix (angstroms):
                    1          2          3          4          5
     1  C    0.000000
     2  C    1.519368   0.000000
     3  C    2.509800   1.519364   0.000000
     4  H    1.094551   2.159604   3.461219   0.000000
     5  H    1.094601   2.166822   2.771351   1.772406   0.000000
     6  H    1.094608   2.166826   2.771353   1.772402   1.774079
     7  H    2.149625   1.095539   2.149618   2.480858   2.504673
     8  H    2.149627   1.095545   2.149622   2.480852   3.066672
     9  H    2.771354   2.166823   1.094609   3.773183   2.582769
    10  H    3.461219   2.159600   1.094551   4.295959   3.773179
    11  H    2.771354   2.166824   1.094606   3.773179   3.133377
                    6          7          8          9         10
     6  H    0.000000
     7  H    3.066673   0.000000
     8  H    2.504674   1.764911   0.000000
     9  H    3.133383   2.504665   3.066674   0.000000
    10  H    3.773181   2.480844   2.480849   1.772405   0.000000
    11  H    2.582770   3.066668   2.504670   1.774089   1.772405
                   11
    11  H    0.000000
 Stoichiometry    C3H8
 Framework group  C2V[C2(C),SGV(C2H2),SGV'(H2),X(H4)]
 Deg. of freedom     9
 Full point group                 C2V     NOp   4
 Largest Abelian subgroup         C2V     NOp   4
 Largest concise Abelian subgroup C2V     NOp   4
                         Standard orientation:                         
 ---------------------------------------------------------------------
 Center     Atomic      Atomic             Coordinates (Angstroms)
 Number     Number       Type             X           Y           Z
 ---------------------------------------------------------------------
      1          6           0       -0.000000    1.254901   -0.263666
      2          6           0       -0.000000   -0.000000    0.592895
      3          6           0       -0.000000   -1.254901   -0.263666
      4          1           0       -0.000000    2.147980    0.369146
      5          1           0       -0.887037    1.291385   -0.903970
      6          1           0        0.887037    1.291385   -0.903970
      7          1           0       -0.882454   -0.000000    1.242113
      8          1           0        0.882454   -0.000000    1.242113
      9          1           0       -0.887037   -1.291385   -0.903970
     10          1           0       -0.000000   -2.147980    0.369146
     11          1           0        0.887037   -1.291385   -0.903970
 ---------------------------------------------------------------------
 Rotational constants (GHZ):          29.2064924           8.6302542           7.6134874
 Standard basis: 6-311++G(d,p) (5D, 7F)
 There are    48 symmetry adapted cartesian basis functions of A1  symmetry.
 There are    16 symmetry adapted cartesian basis functions of A2  symmetry.
 There are    25 symmetry adapted cartesian basis functions of B1  symmetry.
 There are    36 symmetry adapted cartesian basis functions of B2  symmetry.
 There are    46 symmetry adapted basis functions of A1  symmetry.
 There are    16 symmetry adapted basis functions of A2  symmetry.
 There are    25 symmetry adapted basis functions of B1  symmetry.
 There are    35 symmetry adapted basis functions of B2  symmetry.
   122 basis functions,   180 primitive gaussians,   125 cartesian basis functions
    13 alpha electrons       13 beta electrons
       nuclear repulsion energy        82.9057215706 Hartrees.
 NAtoms=   11 NActive=   11 NUniq=    5 SFac= 4.00D+00 NAtFMM=   60 NAOKFM=F Big=F
 Integral buffers will be    131072 words long.
 Raffenetti 2 integral format.
 Two-electron integral symmetry is turned on.
 One-electron integrals computed using PRISM.
 NBasis=   122 RedAO= T EigKep=  6.17D-05  NBF=    46    16    25    35
 NBsUse=   122 1.00D-06 EigRej= -1.00D+00 NBFU=    46    16    25    35
 ExpMin= 3.60D-02 ExpMax= 4.56D+03 ExpMxC= 6.82D+02 IAcc=3 IRadAn=         5 AccDes= 0.00D+00
 Harris functional with IExCor= 1009 and IRadAn=       5 diagonalized for initial guess.
 HarFok:  IExCor= 1009 AccDes= 0.00D+00 IRadAn=         5 IDoV= 1 UseB2=F ITyADJ=14
 ICtDFT=  3500011 ScaDFX=  1.000000  1.000000  1.000000  1.000000
 FoFCou: FMM=F IPFlag=           0 FMFlag=      100000 FMFlg1=           0
         NFxFlg=           0 DoJE=T BraDBF=F KetDBF=T FulRan=T
         wScrn=  0.000000 ICntrl=       500 IOpCl=  0 I1Cent=   200000004 NGrid=           0
         NMat0=    1 NMatS0=      1 NMatT0=    0 NMatD0=    1 NMtDS0=    0 NMtDT0=    0
 Petite list used in FoFCou.
 Initial guess orbital symmetries:
       Occupied  (B2) (A1) (A1) (A1) (B2) (A1) (B1) (A1) (B2) (A2)
                 (B2) (A1) (B1)
       Virtual   (A1) (B2) (A1) (B1) (A1) (B1) (B2) (A1) (A2) (A1)
                 (B2) (A2) (B2) (A1) (B1) (A1) (A1) (B2) (B1) (B2)
                 (B1) (A1) (B1) (A2) (B2) (A1) (B2) (A1) (B2) (A1)
                 (A1) (A2) (B1) (B2) (A1) (B1) (B2) (A1) (B1) (B2)
                 (B1) (A2) (A1) (B2) (A1) (A1) (B2) (A1) (A1) (A2)
                 (B2) (A1) (B2) (B1) (A2) (A1) (B1) (A2) (A1) (B2)
                 (B1) (A2) (B1) (B2) (A1) (B1) (B2) (A1) (A2) (B1)
                 (B2) (A1) (A2) (B2) (A1) (B2) (A1) (B1) (B2) (A1)
                 (A2) (A1) (B1) (B2) (B2) (A1) (A2) (B1) (A1) (B1)
                 (A1) (A2) (B2) (B1) (A1) (B2) (A1) (B2) (A1) (A2)
                 (B2) (A1) (B1) (B1) (A1) (B2) (A1) (B2) (A1)
 The electronic state of the initial guess is 1-A1.
 Keep R1 ints in memory in symmetry-blocked form, NReq=35790393.
 Requested convergence on RMS density matrix=1.00D-08 within 128 cycles.
 Requested convergence on MAX density matrix=1.00D-06.
 Requested convergence on             energy=1.00D-06.
 No special actions if energy rises.
 SCF Done:  E(RM062X) =  -119.100366924     A.U. after   10 cycles
            NFock= 10  Conv=0.14D-08     -V/T= 2.0048

 **********************************************************************

            Population analysis using the SCF Density.

 **********************************************************************

 Orbital symmetries:
       Occupied  (A1) (B2) (A1) (A1) (B2) (A1) (B1) (A1) (B2) (A2)
                 (A1) (B2) (B1)
       Virtual   (A1) (B2) (A1) (B1) (A1) (B2) (B1) (A2) (A1) (A1)
                 (B2) (A2) (B2) (B1) (A1) (A1) (B2) (B1) (A1) (B2)
                 (B1) (A1) (B1) (A2) (B2) (A1) (B2) (A1) (B2) (A1)
                 (A1) (A2) (B1) (B2) (A1) (B1) (B2) (A1) (B1) (B1)
                 (B2) (B2) (A2) (A1) (A1) (A1) (B2) (A1) (A1) (B2)
                 (A2) (A1) (B2) (B1) (A2) (A1) (B1) (A2) (A2) (B1)
                 (A1) (B2) (B1) (B2) (A1) (B1) (B2) (A1) (A2) (B2)
                 (B1) (A1) (A2) (B2) (A1) (B2) (A1) (B1) (B2) (A1)
                 (A2) (A1) (B1) (B2) (A2) (B2) (A1) (B1) (A1) (B1)
                 (A1) (B2) (B1) (A2) (A1) (B2) (A1) (B2) (A1) (A2)
                 (B2) (B1) (A1) (B1) (A1) (B2) (A1) (B2) (A1)
 The electronic state is 1-A1.
 Alpha  occ. eigenvalues --  -10.52759 -10.51951 -10.51950  -0.88123  -0.76929
 Alpha  occ. eigenvalues --   -0.66420  -0.52988  -0.50449  -0.46256  -0.44359
 Alpha  occ. eigenvalues --   -0.39603  -0.39130  -0.38693
 Alpha virt. eigenvalues --    0.00154   0.01983   0.02116   0.02318   0.04727
 Alpha virt. eigenvalues --    0.05404   0.05517   0.06187   0.08198   0.10544
 Alpha virt. eigenvalues --    0.11727   0.12475   0.13066   0.13485   0.13957
 Alpha virt. eigenvalues --    0.15335   0.15340   0.15717   0.17984   0.18350
 Alpha virt. eigenvalues --    0.21080   0.21848   0.24296   0.24416   0.26034
 Alpha virt. eigenvalues --    0.27478   0.31964   0.32065   0.33124   0.35835
 Alpha virt. eigenvalues --    0.44027   0.44809   0.48066   0.50674   0.51133
 Alpha virt. eigenvalues --    0.57813   0.58290   0.68889   0.70397   0.70629
 Alpha virt. eigenvalues --    0.70961   0.71459   0.71827   0.72352   0.74547
 Alpha virt. eigenvalues --    0.78995   0.80530   0.87530   0.96368   1.00160
 Alpha virt. eigenvalues --    1.02267   1.04596   1.23808   1.30627   1.31861
 Alpha virt. eigenvalues --    1.48003   1.51051   1.51389   1.58965   1.59286
 Alpha virt. eigenvalues --    1.59679   1.60512   1.62102   1.64128   1.68557
 Alpha virt. eigenvalues --    1.73843   1.77212   1.77511   1.77597   1.84949
 Alpha virt. eigenvalues --    1.85077   1.95938   2.06096   2.10786   2.11554
 Alpha virt. eigenvalues --    2.14137   2.20134   2.26559   2.35335   2.39020
 Alpha virt. eigenvalues --    2.40784   2.48939   2.52602   2.53064   2.55697
 Alpha virt. eigenvalues --    2.57094   2.57612   2.59735   2.66784   2.73103
 Alpha virt. eigenvalues --    2.73848   2.74557   2.75634   2.76661   2.81870
 Alpha virt. eigenvalues --    2.95188   2.98926   3.14603   3.38873   3.82942
 Alpha virt. eigenvalues --    3.83535   3.87383   3.87966   3.89105   4.18924
 Alpha virt. eigenvalues --    4.35254  23.96491  24.05821  24.05962
          Condensed to atoms (all electrons):
               1          2          3          4          5          6
     1  C    5.232839   0.218469  -0.055108   0.398042   0.405188   0.405188
     2  C    0.218469   5.049109   0.218469  -0.047961  -0.024621  -0.024621
     3  C   -0.055108   0.218469   5.232839   0.015365  -0.015257  -0.015257
     4  H    0.398042  -0.047961   0.015365   0.559198  -0.031799  -0.031799
     5  H    0.405188  -0.024621  -0.015257  -0.031799   0.579911  -0.056488
     6  H    0.405188  -0.024621  -0.015257  -0.031799  -0.056488   0.579911
     7  H   -0.057754   0.463940  -0.057754  -0.003581  -0.015358   0.010440
     8  H   -0.057754   0.463940  -0.057754  -0.003581   0.010440  -0.015358
     9  H   -0.015257  -0.024621   0.405188  -0.000416   0.005464  -0.000765
    10  H    0.015365  -0.047961   0.398042  -0.001781  -0.000416  -0.000416
    11  H   -0.015257  -0.024621   0.405188  -0.000416  -0.000765   0.005464
               7          8          9         10         11
     1  C   -0.057754  -0.057754  -0.015257   0.015365  -0.015257
     2  C    0.463940   0.463940  -0.024621  -0.047961  -0.024621
     3  C   -0.057754  -0.057754   0.405188   0.398042   0.405188
     4  H   -0.003581  -0.003581  -0.000416  -0.001781  -0.000416
     5  H   -0.015358   0.010440   0.005464  -0.000416  -0.000765
     6  H    0.010440  -0.015358  -0.000765  -0.000416   0.005464
     7  H    0.578711  -0.057741  -0.015358  -0.003581   0.010440
     8  H   -0.057741   0.578711   0.010440  -0.003581  -0.015358
     9  H   -0.015358   0.010440   0.579911  -0.031799  -0.056488
    10  H   -0.003581  -0.003581  -0.031799   0.559198  -0.031799
    11  H    0.010440  -0.015358  -0.056488  -0.031799   0.579911
 Mulliken charges:
               1
     1  C   -0.473962
     2  C   -0.219523
     3  C   -0.473962
     4  H    0.148729
     5  H    0.143700
     6  H    0.143700
     7  H    0.147595
     8  H    0.147595
     9  H    0.143700
    10  H    0.148729
    11  H    0.143700
 Sum of Mulliken charges =  -0.00000
 Mulliken charges with hydrogens summed into heavy atoms:
               1
     1  C   -0.037833
     2  C    0.075667
     3  C   -0.037833
 Electronic spatial extent (au):  <R**2>=            224.4002
 Charge=             -0.0000 electrons
 Dipole moment (field-independent basis, Debye):
    X=              0.0000    Y=              0.0000    Z=              0.1002  Tot=              0.1002
 Quadrupole moment (field-independent basis, Debye-Ang):
   XX=            -21.5175   YY=            -22.5306   ZZ=            -22.0811
   XY=              0.0000   XZ=             -0.0000   YZ=              0.0000
 Traceless Quadrupole moment (field-independent basis, Debye-Ang):
   XX=              0.5256   YY=             -0.4875   ZZ=             -0.0381
   XY=              0.0000   XZ=             -0.0000   YZ=              0.0000
 Octapole moment (field-independent basis, Debye-Ang**2):
  XXX=              0.0000  YYY=              0.0000  ZZZ=              0.4441  XYY=              0.0000
  XXY=              0.0000  XXZ=             -0.5045  XZZ=              0.0000  YZZ=             -0.0000
  YYZ=              1.6539  XYZ=             -0.0000
 Hexadecapole moment (field-independent basis, Debye-Ang**3):
 XXXX=            -45.2164 YYYY=           -202.8272 ZZZZ=            -73.8814 XXXY=             -0.0000
 XXXZ=             -0.0000 YYYX=              0.0000 YYYZ=              0.0000 ZZZX=              0.0000
 ZZZY=              0.0000 XXYY=            -42.2046 XXZZ=            -17.4469 YYZZ=            -45.4389
 XXYZ=              0.0000 YYXZ=             -0.0000 ZZXY=              0.0000
 N-N= 8.290572157057D+01 E-N=-4.409424373285D+02  KE= 1.185292900669D+02
 Symmetry A1   KE= 7.334757223459D+01
 Symmetry A2   KE= 2.027333665049D+00
 Symmetry B1   KE= 3.854263196875D+00
 Symmetry B2   KE= 3.930012097041D+01
 Calling FoFJK, ICntrl=      2127 FMM=F ISym2X=1 I1Cent= 0 IOpClX= 0 NMat=1 NMatS=1 NMatT=0.
 ***** Axes restored to original set *****
 -------------------------------------------------------------------
 Center     Atomic                   Forces (Hartrees/Bohr)
 Number     Number              X              Y              Z
 -------------------------------------------------------------------
      1        6          -0.003712241    0.000532488   -0.005200148
      2        6          -0.000013057   -0.000001881    0.000018370
      3        6           0.006165792   -0.000179026    0.001748362
      4        1          -0.001870066   -0.000214387    0.002093624
      5        1          -0.000007106   -0.001211641   -0.000326933
      6        1          -0.000007108    0.001252756   -0.000074580
      7        1           0.000209691   -0.001607995   -0.000462753
      8        1           0.000209688    0.001668412   -0.000127251
      9        1           0.000192635   -0.001226029   -0.000186429
     10        1          -0.001360860   -0.000251065    0.002451814
     11        1           0.000192633    0.001238369    0.000065924
 -------------------------------------------------------------------
 Cartesian Forces:  Max     0.006165792 RMS     0.001826177

 GradGradGradGradGradGradGradGradGradGradGradGradGradGradGradGradGradGrad
 Berny optimization.
 FormGI is forming the generalized inverse of G from B-inverse, IUseBI=4.
 Internal  Forces:  Max     0.005654103 RMS     0.001679552
 Search for a local minimum.
 Step number   1 out of a maximum of   56
 All quantities printed in internal units (Hartrees-Bohrs-Radians)
 Mixed Optimization -- RFO/linear search
 Second derivative matrix not updated -- first step.
 ITU=  0
     Eigenvalues ---    0.00510   0.00510   0.03789   0.04986   0.05630
     Eigenvalues ---    0.05630   0.05702   0.05702   0.08175   0.12067
     Eigenvalues ---    0.16000   0.16000   0.16000   0.16000   0.16000
     Eigenvalues ---    0.16000   0.21907   0.30428   0.30428   0.34180
     Eigenvalues ---    0.34180   0.34286   0.34286   0.34286   0.34286
     Eigenvalues ---    0.34292   0.34292
 RFO step:  Lambda=-6.65929572D-04 EMin= 5.09764089D-03
 Linear search not attempted -- first point.
 Iteration  1 RMS(Cart)=  0.01584159 RMS(Int)=  0.00008059
 Iteration  2 RMS(Cart)=  0.00009187 RMS(Int)=  0.00003437
 Iteration  3 RMS(Cart)=  0.00000000 RMS(Int)=  0.00003437
 ClnCor:  largest displacement from symmetrization is 1.44D-08 for atom    11.
 Variable       Old X    -DE/DX   Delta X   Delta X   Delta X     New X
                                 (Linear)    (Quad)   (Total)
    R1        2.87119   0.00565   0.00000   0.01854   0.01854   2.88973
    R2        2.06840  -0.00136   0.00000  -0.00397  -0.00397   2.06443
    R3        2.06850  -0.00109   0.00000  -0.00318  -0.00318   2.06532
    R4        2.06850  -0.00109   0.00000  -0.00318  -0.00318   2.06532
    R5        2.87119   0.00565   0.00000   0.01854   0.01854   2.88973
    R6        2.07027  -0.00111   0.00000  -0.00324  -0.00324   2.06703
    R7        2.07027  -0.00111   0.00000  -0.00324  -0.00324   2.06703
    R8        2.06850  -0.00109   0.00000  -0.00318  -0.00318   2.06532
    R9        2.06840  -0.00136   0.00000  -0.00397  -0.00397   2.06443
   R10        2.06850  -0.00109   0.00000  -0.00318  -0.00318   2.06532
    A1        1.92620   0.00362   0.00000   0.02624   0.02618   1.95238
    A2        1.93618  -0.00017   0.00000  -0.00289  -0.00294   1.93324
    A3        1.93618  -0.00017   0.00000  -0.00289  -0.00294   1.93324
    A4        1.88704  -0.00141   0.00000  -0.00524  -0.00530   1.88175
    A5        1.88704  -0.00141   0.00000  -0.00524  -0.00530   1.88175
    A6        1.88958  -0.00061   0.00000  -0.01079  -0.01083   1.87875
    A7        1.94372   0.00322   0.00000   0.01904   0.01897   1.96270
    A8        1.91143  -0.00079   0.00000  -0.00121  -0.00127   1.91016
    A9        1.91143  -0.00079   0.00000  -0.00121  -0.00127   1.91016
   A10        1.91143  -0.00079   0.00000  -0.00121  -0.00127   1.91016
   A11        1.91143  -0.00079   0.00000  -0.00121  -0.00127   1.91016
   A12        1.87303  -0.00019   0.00000  -0.01549  -0.01552   1.85751
   A13        1.93618  -0.00017   0.00000  -0.00289  -0.00294   1.93324
   A14        1.92620   0.00362   0.00000   0.02624   0.02618   1.95238
   A15        1.93618  -0.00017   0.00000  -0.00289  -0.00294   1.93324
   A16        1.88704  -0.00141   0.00000  -0.00524  -0.00530   1.88175
   A17        1.88958  -0.00061   0.00000  -0.01079  -0.01083   1.87875
   A18        1.88704  -0.00141   0.00000  -0.00524  -0.00530   1.88175
    D1        3.14159   0.00000   0.00000   0.00000   0.00000   3.14159
    D2        1.02478  -0.00057   0.00000  -0.01009  -0.01009   1.01469
    D3       -1.02478   0.00057   0.00000   0.01009   0.01009  -1.01469
    D4        1.05046  -0.00050   0.00000  -0.00873  -0.00874   1.04172
    D5       -1.06635  -0.00107   0.00000  -0.01882  -0.01883  -1.08518
    D6       -3.11591   0.00008   0.00000   0.00135   0.00136  -3.11456
    D7       -1.05046   0.00050   0.00000   0.00873   0.00874  -1.04172
    D8        3.11591  -0.00008   0.00000  -0.00135  -0.00136   3.11456
    D9        1.06635   0.00107   0.00000   0.01882   0.01883   1.08518
   D10       -1.05046   0.00050   0.00000   0.00873   0.00874  -1.04172
   D11       -3.14159   0.00000   0.00000   0.00000  -0.00000   3.14159
   D12        1.05046  -0.00050   0.00000  -0.00873  -0.00874   1.04172
   D13        1.06635   0.00107   0.00000   0.01882   0.01883   1.08518
   D14       -1.02478   0.00057   0.00000   0.01009   0.01009  -1.01469
   D15       -3.11591   0.00008   0.00000   0.00135   0.00136  -3.11456
   D16        3.11591  -0.00008   0.00000  -0.00135  -0.00136   3.11456
   D17        1.02478  -0.00057   0.00000  -0.01009  -0.01009   1.01469
   D18       -1.06635  -0.00107   0.00000  -0.01882  -0.01883  -1.08518
         Item               Value     Threshold  Converged?
 Maximum Force            0.005654     0.000450     NO 
 RMS     Force            0.001680     0.000300     NO 
 Maximum Displacement     0.050593     0.001800     NO 
 RMS     Displacement     0.015776     0.001200     NO 
 Predicted change in Energy=-3.350083D-04
 GradGradGradGradGradGradGradGradGradGradGradGradGradGradGradGradGradGrad

                          Input orientation:                          
 ---------------------------------------------------------------------
 Center     Atomic      Atomic             Coordinates (Angstroms)
 Number     Number       Type             X           Y           Z
 ---------------------------------------------------------------------
      1          6           0        1.001035    0.051363    0.059309
      2          6           0        2.529696    0.047310    0.098907
      3          6           0        3.076774   -0.098152    1.519446
      4          1           0        0.620747    0.155687   -0.959488
      5          1           0        0.600230    0.877469    0.652077
      6          1           0        0.600232   -0.877736    0.472345
      7          1           0        2.907869    0.973249   -0.343891
      8          1           0        2.907870   -0.769669   -0.522365
      9          1           0        2.733753    0.723792    2.152861
     10          1           0        4.169090   -0.099900    1.536524
     11          1           0        2.733754   -1.031414    1.973130
 ---------------------------------------------------------------------
                    Distance matrix (angstroms):
                    1          2          3          4          5
     1  C    0.000000
     2  C    1.529178   0.000000
     3  C    2.542252   1.529178   0.000000
     4  H    1.092451   2.185413   3.498802   0.000000
     5  H    1.092918   2.172095   2.799542   1.765937   0.000000
     6  H    1.092918   2.172095   2.799542   1.765937   1.764384
     7  H    2.156028   1.093823   2.156028   2.505652   2.515218
     8  H    2.156028   1.093823   2.156028   2.505652   3.068807
     9  H    2.799542   2.172095   1.092918   3.804505   2.613023
    10  H    3.498802   2.185413   1.092451   4.345819   3.804505
    11  H    2.799542   2.172095   1.092918   3.804505   3.152926
                    6          7          8          9         10
     6  H    0.000000
     7  H    3.068807   0.000000
     8  H    2.515218   1.752032   0.000000
     9  H    3.152926   2.515218   3.068807   0.000000
    10  H    3.804505   2.505652   2.505652   1.765937   0.000000
    11  H    2.613023   3.068807   2.515218   1.764384   1.765937
                   11
    11  H    0.000000
 Stoichiometry    C3H8
 Framework group  C2V[C2(C),SGV(C2H2),SGV'(H2),X(H4)]
 Deg. of freedom     9
 Full point group                 C2V     NOp   4
 Largest Abelian subgroup         C2V     NOp   4
 Largest concise Abelian subgroup C2V     NOp   4
                         Standard orientation:                         
 ---------------------------------------------------------------------
 Center     Atomic      Atomic             Coordinates (Angstroms)
 Number     Number       Type             X           Y           Z
 ---------------------------------------------------------------------
      1          6           0        0.000000    1.271126   -0.260277
      2          6           0        0.000000   -0.000000    0.589796
      3          6           0       -0.000000   -1.271126   -0.260277
      4          1           0        0.000000    2.172909    0.356356
      5          1           0       -0.882192    1.306512   -0.904447
      6          1           0        0.882192    1.306512   -0.904447
      7          1           0       -0.876016   -0.000000    1.244811
      8          1           0        0.876016    0.000000    1.244811
      9          1           0       -0.882192   -1.306512   -0.904447
     10          1           0       -0.000000   -2.172909    0.356356
     11          1           0        0.882192   -1.306512   -0.904447
 ---------------------------------------------------------------------
 Rotational constants (GHZ):          29.4551518           8.4425716           7.4705053
 Standard basis: 6-311++G(d,p) (5D, 7F)
 There are    48 symmetry adapted cartesian basis functions of A1  symmetry.
 There are    16 symmetry adapted cartesian basis functions of A2  symmetry.
 There are    25 symmetry adapted cartesian basis functions of B1  symmetry.
 There are    36 symmetry adapted cartesian basis functions of B2  symmetry.
 There are    46 symmetry adapted basis functions of A1  symmetry.
 There are    16 symmetry adapted basis functions of A2  symmetry.
 There are    25 symmetry adapted basis functions of B1  symmetry.
 There are    35 symmetry adapted basis functions of B2  symmetry.
   122 basis functions,   180 primitive gaussians,   125 cartesian basis functions
    13 alpha electrons       13 beta electrons
       nuclear repulsion energy        82.5382178892 Hartrees.
 NAtoms=   11 NActive=   11 NUniq=    5 SFac= 4.00D+00 NAtFMM=   60 NAOKFM=F Big=F
 Integral buffers will be    131072 words long.
 Raffenetti 2 integral format.
 Two-electron integral symmetry is turned on.
 One-electron integrals computed using PRISM.
 NBasis=   122 RedAO= T EigKep=  6.65D-05  NBF=    46    16    25    35
 NBsUse=   122 1.00D-06 EigRej= -1.00D+00 NBFU=    46    16    25    35
 Initial guess from the checkpoint file:  "CCC.chk"
 B after Tr=    -0.000000   -0.000000   -0.000001
         Rot=    1.000000   -0.000000   -0.000000    0.000000 Ang=   0.00 deg.
 Initial guess orbital symmetries:
       Occupied  (A1) (B2) (A1) (A1) (B2) (A1) (B1) (A1) (B2) (A2)
                 (A1) (B2) (B1)
       Virtual   (A1) (B2) (A1) (B1) (A1) (B2) (B1) (A2) (A1) (A1)
                 (B2) (A2) (B2) (B1) (A1) (A1) (B2) (B1) (A1) (B2)
                 (B1) (A1) (B1) (A2) (B2) (A1) (B2) (A1) (B2) (A1)
                 (A1) (A2) (B1) (B2) (A1) (B1) (B2) (A1) (B1) (B1)
                 (B2) (B2) (A2) (A1) (A1) (A1) (B2) (A1) (A1) (B2)
                 (A2) (A1) (B2) (B1) (A2) (A1) (B1) (A2) (A2) (B1)
                 (A1) (B2) (B1) (B2) (A1) (B1) (B2) (A1) (A2) (B2)
                 (B1) (A1) (A2) (B2) (A1) (B2) (A1) (B1) (B2) (A1)
                 (A2) (A1) (B1) (B2) (A2) (B2) (A1) (B1) (A1) (B1)
                 (A1) (B2) (B1) (A2) (A1) (B2) (A1) (B2) (A1) (A2)
                 (B2) (B1) (A1) (B1) (A1) (B2) (A1) (B2) (A1)
 ExpMin= 3.60D-02 ExpMax= 4.56D+03 ExpMxC= 6.82D+02 IAcc=3 IRadAn=         5 AccDes= 0.00D+00
 Harris functional with IExCor= 1009 and IRadAn=       5 diagonalized for initial guess.
 HarFok:  IExCor= 1009 AccDes= 0.00D+00 IRadAn=         5 IDoV= 1 UseB2=F ITyADJ=14
 ICtDFT=  3500011 ScaDFX=  1.000000  1.000000  1.000000  1.000000
 FoFCou: FMM=F IPFlag=           0 FMFlag=      100000 FMFlg1=           0
         NFxFlg=           0 DoJE=T BraDBF=F KetDBF=T FulRan=T
         wScrn=  0.000000 ICntrl=       500 IOpCl=  0 I1Cent=   200000004 NGrid=           0
         NMat0=    1 NMatS0=      1 NMatT0=    0 NMatD0=    1 NMtDS0=    0 NMtDT0=    0
 Petite list used in FoFCou.
 Keep R1 ints in memory in symmetry-blocked form, NReq=35790393.
 Requested convergence on RMS density matrix=1.00D-08 within 128 cycles.
 Requested convergence on MAX density matrix=1.00D-06.
 Requested convergence on             energy=1.00D-06.
 No special actions if energy rises.
 SCF Done:  E(RM062X) =  -119.100629269     A.U. after    9 cycles
            NFock=  9  Conv=0.99D-09     -V/T= 2.0050
 Calling FoFJK, ICntrl=      2127 FMM=F ISym2X=1 I1Cent= 0 IOpClX= 0 NMat=1 NMatS=1 NMatT=0.
 ***** Axes restored to original set *****
 -------------------------------------------------------------------
 Center     Atomic                   Forces (Hartrees/Bohr)
 Number     Number              X              Y              Z
 -------------------------------------------------------------------
      1        6           0.000913208   -0.000034582    0.000337726
      2        6          -0.000105109   -0.000015142    0.000147873
      3        6          -0.000624477    0.000076177   -0.000743929
      4        1           0.000623458   -0.000026443    0.000258242
      5        1          -0.000074621    0.000122488    0.000248630
      6        1          -0.000074621   -0.000170336    0.000218645
      7        1           0.000093916    0.000035148   -0.000129913
      8        1           0.000093916   -0.000008089   -0.000134340
      9        1          -0.000196554    0.000131271    0.000162858
     10        1          -0.000452563    0.000051062   -0.000498665
     11        1          -0.000196554   -0.000161554    0.000132873
 -------------------------------------------------------------------
 Cartesian Forces:  Max     0.000913208 RMS     0.000312718

 GradGradGradGradGradGradGradGradGradGradGradGradGradGradGradGradGradGrad
 Berny optimization.
 Using GEDIIS/GDIIS optimizer.
 FormGI is forming the generalized inverse of G from B-inverse, IUseBI=4.
 Internal  Forces:  Max     0.001518962 RMS     0.000453759
 Search for a local minimum.
 Step number   2 out of a maximum of   56
 All quantities printed in internal units (Hartrees-Bohrs-Radians)
 Mixed Optimization -- En-DIIS/RFO-DIIS
 Update second derivatives using D2CorX and points    1    2
 DE= -2.62D-04 DEPred=-3.35D-04 R= 7.83D-01
 TightC=F SS=  1.41D+00  RLast= 7.26D-02 DXNew= 5.0454D-01 2.1793D-01
 Trust test= 7.83D-01 RLast= 7.26D-02 DXMaxT set to 3.00D-01
 ITU=  1  0
 Use linear search instead of GDIIS.
     Eigenvalues ---    0.00510   0.00510   0.03658   0.04942   0.05529
     Eigenvalues ---    0.05529   0.05583   0.05661   0.08382   0.12222
     Eigenvalues ---    0.15982   0.16000   0.16000   0.16000   0.16000
     Eigenvalues ---    0.16579   0.23222   0.30428   0.33030   0.33891
     Eigenvalues ---    0.34180   0.34212   0.34286   0.34286   0.34286
     Eigenvalues ---    0.34292   0.35664
 RFO step:  Lambda=-8.52291487D-06 EMin= 5.09764089D-03
 Quartic linear search produced a step of -0.17140.
 Iteration  1 RMS(Cart)=  0.00414112 RMS(Int)=  0.00000681
 Iteration  2 RMS(Cart)=  0.00000450 RMS(Int)=  0.00000577
 Iteration  3 RMS(Cart)=  0.00000000 RMS(Int)=  0.00000577
 ClnCor:  largest displacement from symmetrization is 1.10D-08 for atom     6.
 Variable       Old X    -DE/DX   Delta X   Delta X   Delta X     New X
                                 (Linear)    (Quad)   (Total)
    R1        2.88973  -0.00141  -0.00318  -0.00047  -0.00365   2.88608
    R2        2.06443  -0.00046   0.00068  -0.00184  -0.00116   2.06328
    R3        2.06532   0.00025   0.00055   0.00003   0.00058   2.06589
    R4        2.06532   0.00025   0.00055   0.00003   0.00058   2.06589
    R5        2.88973  -0.00141  -0.00318  -0.00047  -0.00365   2.88608
    R6        2.06703   0.00011   0.00056  -0.00031   0.00024   2.06727
    R7        2.06703   0.00011   0.00056  -0.00031   0.00024   2.06727
    R8        2.06532   0.00025   0.00055   0.00003   0.00058   2.06589
    R9        2.06443  -0.00046   0.00068  -0.00184  -0.00116   2.06328
   R10        2.06532   0.00025   0.00055   0.00003   0.00058   2.06589
    A1        1.95238  -0.00069  -0.00449   0.00103  -0.00345   1.94893
    A2        1.93324   0.00009   0.00050  -0.00003   0.00049   1.93373
    A3        1.93324   0.00009   0.00050  -0.00003   0.00049   1.93373
    A4        1.88175   0.00031   0.00091   0.00051   0.00143   1.88317
    A5        1.88175   0.00031   0.00091   0.00051   0.00143   1.88317
    A6        1.87875  -0.00006   0.00186  -0.00209  -0.00022   1.87853
    A7        1.96270  -0.00152  -0.00325  -0.00269  -0.00593   1.95677
    A8        1.91016   0.00047   0.00022   0.00133   0.00156   1.91172
    A9        1.91016   0.00047   0.00022   0.00133   0.00156   1.91172
   A10        1.91016   0.00047   0.00022   0.00133   0.00156   1.91172
   A11        1.91016   0.00047   0.00022   0.00133   0.00156   1.91172
   A12        1.85751  -0.00030   0.00266  -0.00265   0.00001   1.85753
   A13        1.93324   0.00009   0.00050  -0.00003   0.00049   1.93373
   A14        1.95238  -0.00069  -0.00449   0.00103  -0.00345   1.94893
   A15        1.93324   0.00009   0.00050  -0.00003   0.00049   1.93373
   A16        1.88175   0.00031   0.00091   0.00051   0.00143   1.88317
   A17        1.87875  -0.00006   0.00186  -0.00209  -0.00022   1.87853
   A18        1.88175   0.00031   0.00091   0.00051   0.00143   1.88317
    D1        3.14159  -0.00000   0.00000  -0.00000   0.00000   3.14159
    D2        1.01469   0.00009   0.00173  -0.00083   0.00090   1.01559
    D3       -1.01469  -0.00009  -0.00173   0.00083  -0.00090  -1.01559
    D4        1.04172   0.00001   0.00150  -0.00132   0.00018   1.04190
    D5       -1.08518   0.00010   0.00323  -0.00215   0.00107  -1.08411
    D6       -3.11456  -0.00007  -0.00023  -0.00049  -0.00072  -3.11528
    D7       -1.04172  -0.00001  -0.00150   0.00132  -0.00018  -1.04190
    D8        3.11456   0.00007   0.00023   0.00049   0.00072   3.11528
    D9        1.08518  -0.00010  -0.00323   0.00215  -0.00107   1.08411
   D10       -1.04172  -0.00001  -0.00150   0.00132  -0.00018  -1.04190
   D11        3.14159   0.00000   0.00000   0.00000   0.00000   3.14159
   D12        1.04172   0.00001   0.00150  -0.00132   0.00018   1.04190
   D13        1.08518  -0.00010  -0.00323   0.00215  -0.00107   1.08411
   D14       -1.01469  -0.00009  -0.00173   0.00083  -0.00090  -1.01559
   D15       -3.11456  -0.00007  -0.00023  -0.00049  -0.00072  -3.11528
   D16        3.11456   0.00007   0.00023   0.00049   0.00072   3.11528
   D17        1.01469   0.00009   0.00173  -0.00083   0.00090   1.01559
   D18       -1.08518   0.00010   0.00323  -0.00215   0.00107  -1.08411
         Item               Value     Threshold  Converged?
 Maximum Force            0.001519     0.000450     NO 
 RMS     Force            0.000454     0.000300     NO 
 Maximum Displacement     0.009521     0.001800     NO 
 RMS     Displacement     0.004143     0.001200     NO 
 Predicted change in Energy=-1.567217D-05
 GradGradGradGradGradGradGradGradGradGradGradGradGradGradGradGradGradGrad

                          Input orientation:                          
 ---------------------------------------------------------------------
 Center     Atomic      Atomic             Coordinates (Angstroms)
 Number     Number       Type             X           Y           Z
 ---------------------------------------------------------------------
      1          6           0        1.004038    0.051068    0.062193
      2          6           0        2.530881    0.047481    0.097239
      3          6           0        3.073039   -0.097962    1.517592
      4          1           0        0.624458    0.155352   -0.956216
      5          1           0        0.604130    0.877240    0.656039
      6          1           0        0.604131   -0.878315    0.476271
      7          1           0        2.909094    0.973533   -0.345605
      8          1           0        2.909096   -0.769599   -0.524100
      9          1           0        2.728715    0.724207    2.150537
     10          1           0        4.164752   -0.099655    1.534135
     11          1           0        2.728716   -1.031349    1.970769
 ---------------------------------------------------------------------
                    Distance matrix (angstroms):
                    1          2          3          4          5
     1  C    0.000000
     2  C    1.527250   0.000000
     3  C    2.534001   1.527250   0.000000
     4  H    1.091839   2.180791   3.489906   0.000000
     5  H    1.093224   2.170974   2.790843   1.766607   0.000000
     6  H    1.093224   2.170974   2.790843   1.766607   1.764735
     7  H    2.155570   1.093951   2.155570   2.502364   2.515040
     8  H    2.155570   1.093951   2.155570   2.502364   3.068823
     9  H    2.790843   2.170974   1.093224   3.795181   2.602077
    10  H    3.489906   2.180791   1.091839   4.335960   3.795181
    11  H    2.790843   2.170974   1.093224   3.795181   3.144057
                    6          7          8          9         10
     6  H    0.000000
     7  H    3.068823   0.000000
     8  H    2.515040   1.752247   0.000000
     9  H    3.144057   2.515040   3.068823   0.000000
    10  H    3.795181   2.502364   2.502364   1.766607   0.000000
    11  H    2.602077   3.068823   2.515040   1.764735   1.766607
                   11
    11  H    0.000000
 Stoichiometry    C3H8
 Framework group  C2V[C2(C),SGV(C2H2),SGV'(H2),X(H4)]
 Deg. of freedom     9
 Full point group                 C2V     NOp   4
 Largest Abelian subgroup         C2V     NOp   4
 Largest concise Abelian subgroup C2V     NOp   4
                         Standard orientation:                         
 ---------------------------------------------------------------------
 Center     Atomic      Atomic             Coordinates (Angstroms)
 Number     Number       Type             X           Y           Z
 ---------------------------------------------------------------------
      1          6           0        0.000000    1.267001   -0.261062
      2          6           0        0.000000   -0.000000    0.591698
      3          6           0       -0.000000   -1.267001   -0.261062
      4          1           0       -0.000000    2.167980    0.355662
      5          1           0       -0.882368    1.301038   -0.905584
      6          1           0        0.882368    1.301038   -0.905584
      7          1           0       -0.876123   -0.000000    1.246783
      8          1           0        0.876123    0.000000    1.246783
      9          1           0       -0.882368   -1.301038   -0.905584
     10          1           0       -0.000000   -2.167980    0.355662
     11          1           0        0.882368   -1.301038   -0.905584
 ---------------------------------------------------------------------
 Rotational constants (GHZ):          29.3600362           8.4922726           7.5035597
 Standard basis: 6-311++G(d,p) (5D, 7F)
 There are    48 symmetry adapted cartesian basis functions of A1  symmetry.
 There are    16 symmetry adapted cartesian basis functions of A2  symmetry.
 There are    25 symmetry adapted cartesian basis functions of B1  symmetry.
 There are    36 symmetry adapted cartesian basis functions of B2  symmetry.
 There are    46 symmetry adapted basis functions of A1  symmetry.
 There are    16 symmetry adapted basis functions of A2  symmetry.
 There are    25 symmetry adapted basis functions of B1  symmetry.
 There are    35 symmetry adapted basis functions of B2  symmetry.
   122 basis functions,   180 primitive gaussians,   125 cartesian basis functions
    13 alpha electrons       13 beta electrons
       nuclear repulsion energy        82.6274528936 Hartrees.
 NAtoms=   11 NActive=   11 NUniq=    5 SFac= 4.00D+00 NAtFMM=   60 NAOKFM=F Big=F
 Integral buffers will be    131072 words long.
 Raffenetti 2 integral format.
 Two-electron integral symmetry is turned on.
 One-electron integrals computed using PRISM.
 NBasis=   122 RedAO= T EigKep=  6.56D-05  NBF=    46    16    25    35
 NBsUse=   122 1.00D-06 EigRej= -1.00D+00 NBFU=    46    16    25    35
 Initial guess from the checkpoint file:  "CCC.chk"
 B after Tr=     0.000000    0.000000    0.000000
         Rot=    1.000000   -0.000000    0.000000   -0.000000 Ang=   0.00 deg.
 Initial guess orbital symmetries:
       Occupied  (A1) (B2) (A1) (A1) (B2) (A1) (B1) (A1) (B2) (A2)
                 (B2) (A1) (B1)
       Virtual   (A1) (B2) (A1) (B1) (A1) (B2) (B1) (A2) (A1) (A1)
                 (B2) (A2) (B2) (B1) (A1) (B2) (A1) (B1) (A1) (B2)
                 (B1) (A1) (B1) (A2) (B2) (A1) (A1) (B2) (B2) (A1)
                 (A1) (A2) (B1) (B2) (A1) (B1) (B2) (A1) (B1) (B1)
                 (B2) (B2) (A2) (A1) (A1) (A1) (B2) (A1) (A1) (B2)
                 (A2) (A1) (B2) (B1) (A2) (A1) (B1) (A2) (A1) (A2)
                 (B1) (B2) (B1) (B2) (A1) (B1) (A1) (A2) (B2) (B1)
                 (B2) (A1) (A2) (B2) (A1) (B2) (A1) (B1) (B2) (A1)
                 (A2) (A1) (B1) (B2) (A2) (A1) (B2) (B1) (A1) (B1)
                 (B2) (A1) (B1) (A2) (A1) (B2) (A1) (B2) (A1) (A2)
                 (B2) (B1) (A1) (B1) (A1) (B2) (A1) (B2) (A1)
 Keep R1 ints in memory in symmetry-blocked form, NReq=35790393.
 Requested convergence on RMS density matrix=1.00D-08 within 128 cycles.
 Requested convergence on MAX density matrix=1.00D-06.
 Requested convergence on             energy=1.00D-06.
 No special actions if energy rises.
 SCF Done:  E(RM062X) =  -119.100645911     A.U. after    7 cycles
            NFock=  7  Conv=0.55D-08     -V/T= 2.0049
 Calling FoFJK, ICntrl=      2127 FMM=F ISym2X=1 I1Cent= 0 IOpClX= 0 NMat=1 NMatS=1 NMatT=0.
 ***** Axes restored to original set *****
 -------------------------------------------------------------------
 Center     Atomic                   Forces (Hartrees/Bohr)
 Number     Number              X              Y              Z
 -------------------------------------------------------------------
      1        6           0.000127789    0.000012860   -0.000125585
      2        6          -0.000134550   -0.000019383    0.000189292
      3        6           0.000076426    0.000016560   -0.000161715
      4        1          -0.000016049   -0.000001278    0.000012479
      5        1           0.000001223    0.000002428    0.000063898
      6        1           0.000001223   -0.000015328    0.000062079
      7        1           0.000035312   -0.000003449   -0.000050553
      8        1           0.000035312    0.000013623   -0.000048805
      9        1          -0.000060105    0.000006846    0.000020758
     10        1          -0.000006478   -0.000001967    0.000019212
     11        1          -0.000060104   -0.000010911    0.000018940
 -------------------------------------------------------------------
 Cartesian Forces:  Max     0.000189292 RMS     0.000065981

 GradGradGradGradGradGradGradGradGradGradGradGradGradGradGradGradGradGrad
 Berny optimization.
 Using GEDIIS/GDIIS optimizer.
 FormGI is forming the generalized inverse of G from B-inverse, IUseBI=4.
 Internal  Forces:  Max     0.000126935 RMS     0.000041468
 Search for a local minimum.
 Step number   3 out of a maximum of   56
 All quantities printed in internal units (Hartrees-Bohrs-Radians)
 Mixed Optimization -- En-DIIS/RFO-DIIS
 Swapping is turned off.
 Update second derivatives using D2CorX and points    1    2    3
 DE= -1.66D-05 DEPred=-1.57D-05 R= 1.06D+00
 TightC=F SS=  1.41D+00  RLast= 1.09D-02 DXNew= 5.0454D-01 3.2671D-02
 Trust test= 1.06D+00 RLast= 1.09D-02 DXMaxT set to 3.00D-01
 ITU=  1  1  0
     Eigenvalues ---    0.00510   0.00510   0.03687   0.04953   0.05524
     Eigenvalues ---    0.05548   0.05548   0.05660   0.08328   0.12182
     Eigenvalues ---    0.15988   0.16000   0.16000   0.16000   0.16000
     Eigenvalues ---    0.16899   0.22563   0.30428   0.32030   0.34092
     Eigenvalues ---    0.34180   0.34212   0.34286   0.34286   0.34286
     Eigenvalues ---    0.34292   0.34454
 En-DIIS/RFO-DIIS/Sim-DIIS IScMMF=       -3 using points:     3    2
 RFO step:  Lambda=-5.60502558D-07.
 DidBck=F Rises=F RFO-DIIS coefs:    1.02430   -0.02430
 Iteration  1 RMS(Cart)=  0.00078510 RMS(Int)=  0.00000028
 Iteration  2 RMS(Cart)=  0.00000029 RMS(Int)=  0.00000009
 ClnCor:  largest displacement from symmetrization is 1.30D-08 for atom     6.
 Variable       Old X    -DE/DX   Delta X   Delta X   Delta X     New X
                                 (Linear)    (Quad)   (Total)
    R1        2.88608  -0.00011  -0.00009  -0.00031  -0.00040   2.88569
    R2        2.06328  -0.00001  -0.00003  -0.00002  -0.00005   2.06323
    R3        2.06589   0.00004   0.00001   0.00010   0.00011   2.06601
    R4        2.06589   0.00004   0.00001   0.00010   0.00011   2.06601
    R5        2.88608  -0.00011  -0.00009  -0.00031  -0.00040   2.88569
    R6        2.06727   0.00003   0.00001   0.00008   0.00009   2.06735
    R7        2.06727   0.00003   0.00001   0.00008   0.00009   2.06735
    R8        2.06589   0.00004   0.00001   0.00010   0.00011   2.06601
    R9        2.06328  -0.00001  -0.00003  -0.00002  -0.00005   2.06323
   R10        2.06589   0.00004   0.00001   0.00010   0.00011   2.06601
    A1        1.94893   0.00005  -0.00008   0.00066   0.00058   1.94951
    A2        1.93373  -0.00003   0.00001  -0.00034  -0.00032   1.93341
    A3        1.93373  -0.00003   0.00001  -0.00034  -0.00032   1.93341
    A4        1.88317   0.00001   0.00003   0.00024   0.00028   1.88345
    A5        1.88317   0.00001   0.00003   0.00024   0.00028   1.88345
    A6        1.87853  -0.00001  -0.00001  -0.00050  -0.00050   1.87803
    A7        1.95677  -0.00013  -0.00014  -0.00043  -0.00058   1.95619
    A8        1.91172   0.00005   0.00004   0.00024   0.00027   1.91200
    A9        1.91172   0.00005   0.00004   0.00024   0.00027   1.91200
   A10        1.91172   0.00005   0.00004   0.00024   0.00027   1.91200
   A11        1.91172   0.00005   0.00004   0.00024   0.00027   1.91200
   A12        1.85753  -0.00005   0.00000  -0.00051  -0.00051   1.85702
   A13        1.93373  -0.00003   0.00001  -0.00034  -0.00032   1.93341
   A14        1.94893   0.00005  -0.00008   0.00066   0.00058   1.94951
   A15        1.93373  -0.00003   0.00001  -0.00034  -0.00032   1.93341
   A16        1.88317   0.00001   0.00003   0.00024   0.00028   1.88345
   A17        1.87853  -0.00001  -0.00001  -0.00050  -0.00050   1.87803
   A18        1.88317   0.00001   0.00003   0.00024   0.00028   1.88345
    D1        3.14159   0.00000  -0.00000  -0.00000   0.00000   3.14159
    D2        1.01559  -0.00000   0.00002  -0.00017  -0.00015   1.01544
    D3       -1.01559   0.00000  -0.00002   0.00017   0.00015  -1.01544
    D4        1.04190  -0.00003   0.00000  -0.00053  -0.00052   1.04138
    D5       -1.08411  -0.00003   0.00003  -0.00070  -0.00067  -1.08478
    D6       -3.11528  -0.00002  -0.00002  -0.00036  -0.00037  -3.11565
    D7       -1.04190   0.00003  -0.00000   0.00053   0.00052  -1.04138
    D8        3.11528   0.00002   0.00002   0.00036   0.00037   3.11565
    D9        1.08411   0.00003  -0.00003   0.00070   0.00067   1.08478
   D10       -1.04190   0.00003  -0.00000   0.00053   0.00052  -1.04138
   D11       -3.14159   0.00000   0.00000   0.00000  -0.00000   3.14159
   D12        1.04190  -0.00003   0.00000  -0.00053  -0.00052   1.04138
   D13        1.08411   0.00003  -0.00003   0.00070   0.00067   1.08478
   D14       -1.01559   0.00000  -0.00002   0.00017   0.00015  -1.01544
   D15       -3.11528  -0.00002  -0.00002  -0.00036  -0.00037  -3.11565
   D16        3.11528   0.00002   0.00002   0.00036   0.00037   3.11565
   D17        1.01559  -0.00000   0.00002  -0.00017  -0.00015   1.01544
   D18       -1.08411  -0.00003   0.00003  -0.00070  -0.00067  -1.08478
         Item               Value     Threshold  Converged?
 Maximum Force            0.000127     0.000450     YES
 RMS     Force            0.000041     0.000300     YES
 Maximum Displacement     0.001982     0.001800     NO 
 RMS     Displacement     0.000785     0.001200     YES
 Predicted change in Energy=-2.801928D-07
 GradGradGradGradGradGradGradGradGradGradGradGradGradGradGradGradGradGrad

                          Input orientation:                          
 ---------------------------------------------------------------------
 Center     Atomic      Atomic             Coordinates (Angstroms)
 Number     Number       Type             X           Y           Z
 ---------------------------------------------------------------------
      1          6           0        1.004462    0.051055    0.062322
      2          6           0        2.531105    0.047513    0.096924
      3          6           0        3.072776   -0.097925    1.517237
      4          1           0        0.624001    0.155303   -0.955735
      5          1           0        0.604998    0.877044    0.656828
      6          1           0        0.605000   -0.878283    0.477084
      7          1           0        2.909463    0.973456   -0.346137
      8          1           0        2.909465   -0.769416   -0.524606
      9          1           0        2.727666    0.724149    2.149978
     10          1           0        4.164448   -0.099715    1.534724
     11          1           0        2.727668   -1.031179    1.970234
 ---------------------------------------------------------------------
                    Distance matrix (angstroms):
                    1          2          3          4          5
     1  C    0.000000
     2  C    1.527039   0.000000
     3  C    2.533159   1.527039   0.000000
     4  H    1.091814   2.180998   3.489443   0.000000
     5  H    1.093283   2.170599   2.789408   1.766814   0.000000
     6  H    1.093283   2.170599   2.789408   1.766814   1.764506
     7  H    2.155619   1.093997   2.155619   2.502863   2.515113
     8  H    2.155619   1.093997   2.155619   2.502863   3.068743
     9  H    2.789408   2.170599   1.093283   3.794001   2.599729
    10  H    3.489443   2.180998   1.091814   4.336148   3.794001
    11  H    2.789408   2.170599   1.093283   3.794001   3.141986
                    6          7          8          9         10
     6  H    0.000000
     7  H    3.068743   0.000000
     8  H    2.515113   1.751986   0.000000
     9  H    3.141986   2.515113   3.068743   0.000000
    10  H    3.794001   2.502863   2.502863   1.766814   0.000000
    11  H    2.599729   3.068743   2.515113   1.764506   1.766814
                   11
    11  H    0.000000
 Stoichiometry    C3H8
 Framework group  C2V[C2(C),SGV(C2H2),SGV'(H2),X(H4)]
 Deg. of freedom     9
 Full point group                 C2V     NOp   4
 Largest Abelian subgroup         C2V     NOp   4
 Largest concise Abelian subgroup C2V     NOp   4
                         Standard orientation:                         
 ---------------------------------------------------------------------
 Center     Atomic      Atomic             Coordinates (Angstroms)
 Number     Number       Type             X           Y           Z
 ---------------------------------------------------------------------
      1          6           0       -0.000000    1.266580   -0.261051
      2          6           0        0.000000   -0.000000    0.591958
      3          6           0       -0.000000   -1.266580   -0.261051
      4          1           0        0.000000    2.168074    0.354875
      5          1           0       -0.882253    1.299864   -0.905868
      6          1           0        0.882253    1.299864   -0.905868
      7          1           0       -0.875993   -0.000000    1.247294
      8          1           0        0.875993   -0.000000    1.247294
      9          1           0       -0.882253   -1.299864   -0.905868
     10          1           0       -0.000000   -2.168074    0.354875
     11          1           0        0.882253   -1.299864   -0.905868
 ---------------------------------------------------------------------
 Rotational constants (GHZ):          29.3502098           8.4977514           7.5069097
 Standard basis: 6-311++G(d,p) (5D, 7F)
 There are    48 symmetry adapted cartesian basis functions of A1  symmetry.
 There are    16 symmetry adapted cartesian basis functions of A2  symmetry.
 There are    25 symmetry adapted cartesian basis functions of B1  symmetry.
 There are    36 symmetry adapted cartesian basis functions of B2  symmetry.
 There are    46 symmetry adapted basis functions of A1  symmetry.
 There are    16 symmetry adapted basis functions of A2  symmetry.
 There are    25 symmetry adapted basis functions of B1  symmetry.
 There are    35 symmetry adapted basis functions of B2  symmetry.
   122 basis functions,   180 primitive gaussians,   125 cartesian basis functions
    13 alpha electrons       13 beta electrons
       nuclear repulsion energy        82.6364046635 Hartrees.
 NAtoms=   11 NActive=   11 NUniq=    5 SFac= 4.00D+00 NAtFMM=   60 NAOKFM=F Big=F
 Integral buffers will be    131072 words long.
 Raffenetti 2 integral format.
 Two-electron integral symmetry is turned on.
 One-electron integrals computed using PRISM.
 NBasis=   122 RedAO= T EigKep=  6.55D-05  NBF=    46    16    25    35
 NBsUse=   122 1.00D-06 EigRej= -1.00D+00 NBFU=    46    16    25    35
 Initial guess from the checkpoint file:  "CCC.chk"
 B after Tr=     0.000000    0.000000    0.000000
         Rot=    1.000000    0.000000   -0.000000    0.000000 Ang=   0.00 deg.
 Initial guess orbital symmetries:
       Occupied  (A1) (B2) (A1) (A1) (B2) (A1) (B1) (A1) (B2) (A2)
                 (A1) (B2) (B1)
       Virtual   (A1) (B2) (A1) (B1) (A1) (B2) (B1) (A2) (A1) (A1)
                 (B2) (A2) (B2) (B1) (A1) (B2) (A1) (B1) (A1) (B2)
                 (B1) (A1) (B1) (A2) (B2) (A1) (A1) (B2) (B2) (A1)
                 (A1) (A2) (B1) (B2) (A1) (B1) (B2) (A1) (B1) (B1)
                 (B2) (B2) (A2) (A1) (A1) (A1) (B2) (A1) (A1) (B2)
                 (A2) (A1) (B2) (B1) (A2) (A1) (B1) (A2) (A1) (A2)
                 (B1) (B2) (B1) (B2) (A1) (B1) (A2) (A1) (B2) (B1)
                 (B2) (A1) (A2) (B2) (A1) (B2) (A1) (B1) (B2) (A1)
                 (A2) (A1) (B1) (B2) (A2) (A1) (B2) (B1) (A1) (B1)
                 (B2) (A1) (B1) (A2) (A1) (B2) (A1) (B2) (A1) (A2)
                 (B2) (B1) (A1) (B1) (A1) (B2) (A1) (B2) (A1)
 Keep R1 ints in memory in symmetry-blocked form, NReq=35790393.
 Requested convergence on RMS density matrix=1.00D-08 within 128 cycles.
 Requested convergence on MAX density matrix=1.00D-06.
 Requested convergence on             energy=1.00D-06.
 No special actions if energy rises.
 SCF Done:  E(RM062X) =  -119.100646233     A.U. after    6 cycles
            NFock=  6  Conv=0.54D-08     -V/T= 2.0049
 Calling FoFJK, ICntrl=      2127 FMM=F ISym2X=1 I1Cent= 0 IOpClX= 0 NMat=1 NMatS=1 NMatT=0.
 ***** Axes restored to original set *****
 -------------------------------------------------------------------
 Center     Atomic                   Forces (Hartrees/Bohr)
 Number     Number              X              Y              Z
 -------------------------------------------------------------------
      1        6           0.000015324    0.000002973   -0.000029037
      2        6          -0.000019200   -0.000002766    0.000027012
      3        6           0.000022412    0.000002463   -0.000024052
      4        1          -0.000009467   -0.000000831    0.000008119
      5        1          -0.000004334    0.000001454    0.000009578
      6        1          -0.000004334   -0.000003365    0.000009084
      7        1           0.000009468    0.000001506   -0.000013305
      8        1           0.000009468    0.000001222   -0.000013334
      9        1          -0.000007399    0.000001675    0.000007422
     10        1          -0.000004539   -0.000001186    0.000011585
     11        1          -0.000007399   -0.000003145    0.000006929
 -------------------------------------------------------------------
 Cartesian Forces:  Max     0.000029037 RMS     0.000011782

 GradGradGradGradGradGradGradGradGradGradGradGradGradGradGradGradGradGrad
 Berny optimization.
 Using GEDIIS/GDIIS optimizer.
 FormGI is forming the generalized inverse of G from B-inverse, IUseBI=4.
 Internal  Forces:  Max     0.000019087 RMS     0.000007140
 Search for a local minimum.
 Step number   4 out of a maximum of   56
 All quantities printed in internal units (Hartrees-Bohrs-Radians)
 Mixed Optimization -- En-DIIS/RFO-DIIS
 Swapping is turned off.
 Update second derivatives using D2CorX and points    1    2    3    4
 DE= -3.22D-07 DEPred=-2.80D-07 R= 1.15D+00
 Trust test= 1.15D+00 RLast= 2.60D-03 DXMaxT set to 3.00D-01
 ITU=  0  1  1  0
     Eigenvalues ---    0.00510   0.00510   0.03689   0.04638   0.05199
     Eigenvalues ---    0.05544   0.05544   0.05664   0.08323   0.12179
     Eigenvalues ---    0.15883   0.16000   0.16000   0.16000   0.16000
     Eigenvalues ---    0.16201   0.22326   0.30428   0.33022   0.33866
     Eigenvalues ---    0.34180   0.34258   0.34286   0.34286   0.34286
     Eigenvalues ---    0.34292   0.34711
 En-DIIS/RFO-DIIS/Sim-DIIS IScMMF=       -3 using points:     4    3    2
 RFO step:  Lambda=-1.42118874D-08.
 DidBck=F Rises=F RFO-DIIS coefs:    1.21555   -0.22711    0.01156
 Iteration  1 RMS(Cart)=  0.00015499 RMS(Int)=  0.00000003
 Iteration  2 RMS(Cart)=  0.00000002 RMS(Int)=  0.00000002
 ClnCor:  largest displacement from symmetrization is 3.21D-09 for atom    11.
 Variable       Old X    -DE/DX   Delta X   Delta X   Delta X     New X
                                 (Linear)    (Quad)   (Total)
    R1        2.88569   0.00000  -0.00004   0.00004  -0.00000   2.88568
    R2        2.06323  -0.00000   0.00000  -0.00003  -0.00002   2.06320
    R3        2.06601   0.00001   0.00002   0.00001   0.00003   2.06604
    R4        2.06601   0.00001   0.00002   0.00001   0.00003   2.06604
    R5        2.88569   0.00000  -0.00004   0.00004  -0.00000   2.88568
    R6        2.06735   0.00001   0.00002   0.00002   0.00004   2.06739
    R7        2.06735   0.00001   0.00002   0.00002   0.00004   2.06739
    R8        2.06601   0.00001   0.00002   0.00001   0.00003   2.06604
    R9        2.06323  -0.00000   0.00000  -0.00003  -0.00002   2.06320
   R10        2.06601   0.00001   0.00002   0.00001   0.00003   2.06604
    A1        1.94951   0.00002   0.00017   0.00002   0.00018   1.94970
    A2        1.93341  -0.00000  -0.00008   0.00003  -0.00004   1.93337
    A3        1.93341  -0.00000  -0.00008   0.00003  -0.00004   1.93337
    A4        1.88345  -0.00001   0.00004  -0.00003   0.00001   1.88346
    A5        1.88345  -0.00001   0.00004  -0.00003   0.00001   1.88346
    A6        1.87803  -0.00000  -0.00011  -0.00002  -0.00013   1.87790
    A7        1.95619  -0.00002  -0.00006  -0.00006  -0.00011   1.95608
    A8        1.91200   0.00001   0.00004   0.00003   0.00007   1.91206
    A9        1.91200   0.00001   0.00004   0.00003   0.00007   1.91206
   A10        1.91200   0.00001   0.00004   0.00003   0.00007   1.91206
   A11        1.91200   0.00001   0.00004   0.00003   0.00007   1.91206
   A12        1.85702  -0.00001  -0.00011  -0.00005  -0.00016   1.85686
   A13        1.93341  -0.00000  -0.00008   0.00003  -0.00004   1.93337
   A14        1.94951   0.00002   0.00017   0.00002   0.00018   1.94970
   A15        1.93341  -0.00000  -0.00008   0.00003  -0.00004   1.93337
   A16        1.88345  -0.00001   0.00004  -0.00003   0.00001   1.88346
   A17        1.87803  -0.00000  -0.00011  -0.00002  -0.00013   1.87790
   A18        1.88345  -0.00001   0.00004  -0.00003   0.00001   1.88346
    D1        3.14159   0.00000   0.00000   0.00000   0.00000   3.14159
    D2        1.01544  -0.00000  -0.00004  -0.00001  -0.00006   1.01538
    D3       -1.01544   0.00000   0.00004   0.00001   0.00006  -1.01538
    D4        1.04138  -0.00000  -0.00011   0.00001  -0.00011   1.04127
    D5       -1.08478  -0.00001  -0.00016  -0.00001  -0.00016  -1.08494
    D6       -3.11565  -0.00000  -0.00007   0.00002  -0.00005  -3.11570
    D7       -1.04138   0.00000   0.00011  -0.00001   0.00011  -1.04127
    D8        3.11565   0.00000   0.00007  -0.00002   0.00005   3.11570
    D9        1.08478   0.00001   0.00016   0.00001   0.00016   1.08494
   D10       -1.04138   0.00000   0.00011  -0.00001   0.00011  -1.04127
   D11        3.14159  -0.00000  -0.00000  -0.00000   0.00000   3.14159
   D12        1.04138  -0.00000  -0.00011   0.00001  -0.00011   1.04127
   D13        1.08478   0.00001   0.00016   0.00001   0.00016   1.08494
   D14       -1.01544   0.00000   0.00004   0.00001   0.00006  -1.01538
   D15       -3.11565  -0.00000  -0.00007   0.00002  -0.00005  -3.11570
   D16        3.11565   0.00000   0.00007  -0.00002   0.00005   3.11570
   D17        1.01544  -0.00000  -0.00004  -0.00001  -0.00006   1.01538
   D18       -1.08478  -0.00001  -0.00016  -0.00001  -0.00016  -1.08494
         Item               Value     Threshold  Converged?
 Maximum Force            0.000019     0.000450     YES
 RMS     Force            0.000007     0.000300     YES
 Maximum Displacement     0.000386     0.001800     YES
 RMS     Displacement     0.000155     0.001200     YES
 Predicted change in Energy=-1.135155D-08
 Optimization completed.
    -- Stationary point found.
                           ----------------------------
                           !   Optimized Parameters   !
                           ! (Angstroms and Degrees)  !
 --------------------------                            --------------------------
 ! Name  Definition              Value          Derivative Info.                !
 --------------------------------------------------------------------------------
 ! R1    R(1,2)                  1.527          -DE/DX =    0.0                 !
 ! R2    R(1,4)                  1.0918         -DE/DX =    0.0                 !
 ! R3    R(1,5)                  1.0933         -DE/DX =    0.0                 !
 ! R4    R(1,6)                  1.0933         -DE/DX =    0.0                 !
 ! R5    R(2,3)                  1.527          -DE/DX =    0.0                 !
 ! R6    R(2,7)                  1.094          -DE/DX =    0.0                 !
 ! R7    R(2,8)                  1.094          -DE/DX =    0.0                 !
 ! R8    R(3,9)                  1.0933         -DE/DX =    0.0                 !
 ! R9    R(3,10)                 1.0918         -DE/DX =    0.0                 !
 ! R10   R(3,11)                 1.0933         -DE/DX =    0.0                 !
 ! A1    A(2,1,4)              111.6988         -DE/DX =    0.0                 !
 ! A2    A(2,1,5)              110.776          -DE/DX =    0.0                 !
 ! A3    A(2,1,6)              110.776          -DE/DX =    0.0                 !
 ! A4    A(4,1,5)              107.9138         -DE/DX =    0.0                 !
 ! A5    A(4,1,6)              107.9138         -DE/DX =    0.0                 !
 ! A6    A(5,1,6)              107.6031         -DE/DX =    0.0                 !
 ! A7    A(1,2,3)              112.0815         -DE/DX =    0.0                 !
 ! A8    A(1,2,7)              109.5494         -DE/DX =    0.0                 !
 ! A9    A(1,2,8)              109.5494         -DE/DX =    0.0                 !
 ! A10   A(3,2,7)              109.5494         -DE/DX =    0.0                 !
 ! A11   A(3,2,8)              109.5494         -DE/DX =    0.0                 !
 ! A12   A(7,2,8)              106.3992         -DE/DX =    0.0                 !
 ! A13   A(2,3,9)              110.776          -DE/DX =    0.0                 !
 ! A14   A(2,3,10)             111.6988         -DE/DX =    0.0                 !
 ! A15   A(2,3,11)             110.776          -DE/DX =    0.0                 !
 ! A16   A(9,3,10)             107.9138         -DE/DX =    0.0                 !
 ! A17   A(9,3,11)             107.6031         -DE/DX =    0.0                 !
 ! A18   A(10,3,11)            107.9138         -DE/DX =    0.0                 !
 ! D1    D(4,1,2,3)            180.0            -DE/DX =    0.0                 !
 ! D2    D(4,1,2,7)             58.1802         -DE/DX =    0.0                 !
 ! D3    D(4,1,2,8)            -58.1802         -DE/DX =    0.0                 !
 ! D4    D(5,1,2,3)             59.6664         -DE/DX =    0.0                 !
 ! D5    D(5,1,2,7)            -62.1534         -DE/DX =    0.0                 !
 ! D6    D(5,1,2,8)           -178.5137         -DE/DX =    0.0                 !
 ! D7    D(6,1,2,3)            -59.6664         -DE/DX =    0.0                 !
 ! D8    D(6,1,2,7)            178.5137         -DE/DX =    0.0                 !
 ! D9    D(6,1,2,8)             62.1534         -DE/DX =    0.0                 !
 ! D10   D(1,2,3,9)            -59.6664         -DE/DX =    0.0                 !
 ! D11   D(1,2,3,10)           180.0            -DE/DX =    0.0                 !
 ! D12   D(1,2,3,11)            59.6664         -DE/DX =    0.0                 !
 ! D13   D(7,2,3,9)             62.1534         -DE/DX =    0.0                 !
 ! D14   D(7,2,3,10)           -58.1802         -DE/DX =    0.0                 !
 ! D15   D(7,2,3,11)          -178.5137         -DE/DX =    0.0                 !
 ! D16   D(8,2,3,9)            178.5137         -DE/DX =    0.0                 !
 ! D17   D(8,2,3,10)            58.1802         -DE/DX =    0.0                 !
 ! D18   D(8,2,3,11)           -62.1534         -DE/DX =    0.0                 !
 --------------------------------------------------------------------------------
 GradGradGradGradGradGradGradGradGradGradGradGradGradGradGradGradGradGrad

                          Input orientation:                          
 ---------------------------------------------------------------------
 Center     Atomic      Atomic             Coordinates (Angstroms)
 Number     Number       Type             X           Y           Z
 ---------------------------------------------------------------------
      1          6           0        1.004462    0.051055    0.062322
      2          6           0        2.531105    0.047513    0.096924
      3          6           0        3.072776   -0.097925    1.517237
      4          1           0        0.624001    0.155303   -0.955735
      5          1           0        0.604998    0.877044    0.656828
      6          1           0        0.605000   -0.878283    0.477084
      7          1           0        2.909463    0.973456   -0.346137
      8          1           0        2.909465   -0.769416   -0.524606
      9          1           0        2.727666    0.724149    2.149978
     10          1           0        4.164448   -0.099715    1.534724
     11          1           0        2.727668   -1.031179    1.970234
 ---------------------------------------------------------------------
                    Distance matrix (angstroms):
                    1          2          3          4          5
     1  C    0.000000
     2  C    1.527039   0.000000
     3  C    2.533159   1.527039   0.000000
     4  H    1.091814   2.180998   3.489443   0.000000
     5  H    1.093283   2.170599   2.789408   1.766814   0.000000
     6  H    1.093283   2.170599   2.789408   1.766814   1.764506
     7  H    2.155619   1.093997   2.155619   2.502863   2.515113
     8  H    2.155619   1.093997   2.155619   2.502863   3.068743
     9  H    2.789408   2.170599   1.093283   3.794001   2.599729
    10  H    3.489443   2.180998   1.091814   4.336148   3.794001
    11  H    2.789408   2.170599   1.093283   3.794001   3.141986
                    6          7          8          9         10
     6  H    0.000000
     7  H    3.068743   0.000000
     8  H    2.515113   1.751986   0.000000
     9  H    3.141986   2.515113   3.068743   0.000000
    10  H    3.794001   2.502863   2.502863   1.766814   0.000000
    11  H    2.599729   3.068743   2.515113   1.764506   1.766814
                   11
    11  H    0.000000
 Stoichiometry    C3H8
 Framework group  C2V[C2(C),SGV(C2H2),SGV'(H2),X(H4)]
 Deg. of freedom     9
 Full point group                 C2V     NOp   4
 Largest Abelian subgroup         C2V     NOp   4
 Largest concise Abelian subgroup C2V     NOp   4
                         Standard orientation:                         
 ---------------------------------------------------------------------
 Center     Atomic      Atomic             Coordinates (Angstroms)
 Number     Number       Type             X           Y           Z
 ---------------------------------------------------------------------
      1          6           0       -0.000000    1.266580   -0.261051
      2          6           0       -0.000000   -0.000000    0.591958
      3          6           0       -0.000000   -1.266580   -0.261051
      4          1           0       -0.000000    2.168074    0.354875
      5          1           0       -0.882253    1.299864   -0.905868
      6          1           0        0.882253    1.299864   -0.905868
      7          1           0       -0.875993    0.000000    1.247294
      8          1           0        0.875993   -0.000000    1.247294
      9          1           0       -0.882253   -1.299864   -0.905868
     10          1           0       -0.000000   -2.168074    0.354875
     11          1           0        0.882253   -1.299864   -0.905868
 ---------------------------------------------------------------------
 Rotational constants (GHZ):          29.3502098           8.4977514           7.5069097

 **********************************************************************

            Population analysis using the SCF Density.

 **********************************************************************

 Orbital symmetries:
       Occupied  (A1) (B2) (A1) (A1) (B2) (A1) (B1) (A1) (B2) (A2)
                 (A1) (B2) (B1)
       Virtual   (A1) (B2) (A1) (B1) (A1) (B2) (B1) (A2) (A1) (A1)
                 (B2) (A2) (B2) (B1) (A1) (B2) (A1) (B1) (A1) (B2)
                 (B1) (A1) (B1) (A2) (B2) (A1) (A1) (B2) (B2) (A1)
                 (A1) (A2) (B1) (B2) (A1) (B1) (B2) (A1) (B1) (B1)
                 (B2) (B2) (A2) (A1) (A1) (A1) (B2) (A1) (A1) (B2)
                 (A2) (A1) (B2) (B1) (A2) (A1) (B1) (A2) (A1) (A2)
                 (B1) (B2) (B1) (B2) (A1) (B1) (A2) (A1) (B2) (B1)
                 (B2) (A1) (A2) (B2) (A1) (B2) (A1) (B1) (B2) (A1)
                 (A2) (A1) (B1) (B2) (A2) (A1) (B2) (B1) (A1) (B1)
                 (B2) (A1) (B1) (A2) (A1) (B2) (A1) (B2) (A1) (A2)
                 (B2) (B1) (A1) (B1) (A1) (B2) (A1) (B2) (A1)
 The electronic state is 1-A1.
 Alpha  occ. eigenvalues --  -10.52862 -10.51988 -10.51986  -0.87869  -0.76984
 Alpha  occ. eigenvalues --   -0.66619  -0.52745  -0.50460  -0.46134  -0.44313
 Alpha  occ. eigenvalues --   -0.39535  -0.39504  -0.38634
 Alpha virt. eigenvalues --    0.00157   0.01962   0.02117   0.02352   0.04705
 Alpha virt. eigenvalues --    0.05412   0.05536   0.06193   0.08259   0.10560
 Alpha virt. eigenvalues --    0.11696   0.12457   0.13100   0.13426   0.13959
 Alpha virt. eigenvalues --    0.15303   0.15320   0.15760   0.17987   0.18348
 Alpha virt. eigenvalues --    0.21108   0.21875   0.24221   0.24422   0.26099
[...]
     9   1    -0.11   0.44   0.09    -0.17   0.38   0.16    -0.04  -0.34   0.10
    10   1     0.00   0.19   0.37     0.00   0.23   0.39    -0.51   0.00   0.00
    11   1     0.11   0.44   0.09     0.17   0.38   0.16    -0.04   0.34  -0.10
                     16                     17                     18
                     A1                     ?L                     B1
 Frequencies --   1496.0579              1501.1094              1512.9406
 Red. masses --      1.0449                 1.0524                 1.0399
 Frc consts  --      1.3780                 1.3972                 1.4025
 IR Inten    --      0.0000                 2.8897                17.8614
  Atom  AN      X      Y      Z        X      Y      Z        X      Y      Z
     1   6     0.00   0.01   0.01     0.00  -0.01  -0.04    -0.03  -0.00  -0.00
     2   6    -0.00  -0.00  -0.05     0.00  -0.04   0.00    -0.03  -0.00  -0.00
     3   6    -0.00  -0.01   0.01     0.00  -0.01   0.04    -0.03   0.00   0.00
     4   1    -0.00  -0.09   0.14    -0.00   0.14  -0.23     0.50   0.00  -0.00
     5   1     0.16  -0.05  -0.22    -0.28   0.07   0.37     0.03  -0.35  -0.09
     6   1    -0.16  -0.05  -0.22     0.28   0.07   0.37     0.03   0.35   0.09
     7   1     0.36   0.00   0.46    -0.00   0.09  -0.00    -0.00   0.00   0.04
     8   1    -0.36  -0.00   0.46     0.00   0.09  -0.00    -0.00   0.00  -0.04
     9   1     0.16   0.05  -0.22     0.28   0.07  -0.37     0.03   0.35  -0.09
    10   1     0.00   0.09   0.14    -0.00   0.14   0.23     0.50   0.00   0.00
    11   1    -0.16   0.05  -0.22    -0.28   0.07  -0.37     0.03  -0.35   0.09
                     19                     20                     21
                     ?L                     B2                     A1
 Frequencies --   1517.0961              3053.6039              3054.8681
 Red. masses --      1.0817                 1.0356                 1.0410
 Frc consts  --      1.4669                 5.6893                 5.7237
 IR Inten    --      7.9287                29.0715                 3.5566
  Atom  AN      X      Y      Z        X      Y      Z        X      Y      Z
     1   6    -0.00  -0.02  -0.02     0.00   0.03  -0.03    -0.00   0.02  -0.03
     2   6     0.00   0.00  -0.07    -0.00  -0.00  -0.00     0.00  -0.00   0.03
     3   6     0.00   0.02  -0.02     0.00   0.03   0.03     0.00  -0.02  -0.03
     4   1     0.00   0.13  -0.23     0.00  -0.29  -0.21     0.00  -0.25  -0.17
     5   1    -0.23   0.08   0.31     0.36  -0.00   0.25     0.34  -0.01   0.24
     6   1     0.23   0.08   0.31    -0.36  -0.00   0.25    -0.34  -0.01   0.24
     7   1     0.27   0.00   0.30     0.00   0.00  -0.00     0.23   0.00  -0.16
     8   1    -0.27  -0.00   0.30     0.00   0.00   0.00    -0.23   0.00  -0.16
     9   1    -0.23  -0.08   0.31    -0.36  -0.00  -0.25     0.34   0.01   0.24
    10   1    -0.00  -0.13  -0.23     0.00  -0.29   0.21    -0.00   0.25  -0.17
    11   1     0.23  -0.08   0.31     0.36  -0.00  -0.25    -0.34   0.01   0.24
                     22                     23                     24
                     ?L                     ?A                     ?E
 Frequencies --   3059.6952              3087.2006              3119.5317
 Red. masses --      1.0555                 1.1027                 1.1027
 Frc consts  --      5.8219                 6.1920                 6.3226
 IR Inten    --     39.9081                 2.2210                 0.0000
  Atom  AN      X      Y      Z        X      Y      Z        X      Y      Z
     1   6    -0.00  -0.02   0.00     0.03   0.00   0.00    -0.07   0.00   0.00
     2   6     0.00  -0.00   0.06    -0.09   0.00   0.00     0.00   0.00   0.00
     3   6    -0.00   0.02   0.00     0.03   0.00  -0.00     0.07  -0.00   0.00
     4   1    -0.00   0.18   0.13     0.01  -0.00  -0.00    -0.02  -0.00  -0.00
     5   1    -0.12   0.00  -0.09    -0.19   0.00  -0.14     0.42  -0.01   0.31
     6   1     0.12   0.00  -0.09    -0.19  -0.00   0.14     0.42   0.01  -0.31
     7   1     0.54   0.00  -0.38     0.53  -0.00  -0.40     0.00   0.00  -0.00
     8   1    -0.54  -0.00  -0.38     0.53  -0.00   0.40    -0.00  -0.00  -0.00
     9   1    -0.12  -0.00  -0.09    -0.19  -0.00  -0.14    -0.42  -0.01  -0.31
    10   1     0.00  -0.18   0.13     0.01  -0.00   0.00     0.02   0.00  -0.00
    11   1     0.12  -0.00  -0.09    -0.19   0.00   0.14    -0.42   0.01   0.31
                     25                     26                     27
                     ?A                     ?L                     ?L
 Frequencies --   3129.8897              3132.0327              3133.9500
 Red. masses --      1.1034                 1.1022                 1.1012
 Frc consts  --      6.3685                 6.3703                 6.3722
 IR Inten    --     75.6017                24.5673                37.3814
  Atom  AN      X      Y      Z        X      Y      Z        X      Y      Z
     1   6    -0.06   0.00   0.00    -0.00  -0.04  -0.05    -0.00  -0.04  -0.05
     2   6    -0.05   0.00   0.00    -0.00  -0.00  -0.00     0.00  -0.00  -0.01
     3   6    -0.06   0.00  -0.00    -0.00  -0.04   0.05     0.00   0.04  -0.05
     4   1    -0.01  -0.00  -0.00    -0.00   0.53   0.37    -0.00   0.52   0.36
     5   1     0.37  -0.01   0.28     0.21  -0.01   0.14     0.22  -0.02   0.14
     6   1     0.37   0.01  -0.28    -0.21  -0.01   0.14    -0.22  -0.02   0.14
     7   1     0.27   0.00  -0.20     0.00  -0.00  -0.00    -0.08   0.00   0.06
     8   1     0.27   0.00   0.20     0.00  -0.00   0.00     0.08  -0.00   0.06
     9   1     0.37   0.01   0.28    -0.21  -0.01  -0.14     0.22   0.02   0.14
    10   1    -0.01  -0.00   0.00    -0.00   0.53  -0.37     0.00  -0.52   0.36
    11   1     0.37  -0.01  -0.28     0.21  -0.01  -0.14    -0.22   0.02   0.14

 -------------------
 - Thermochemistry -
 -------------------
 Temperature  5000.000 Kelvin.  Pressure   0.98700 Atm.
 Atom     1 has atomic number  6 and mass  12.00000
 Atom     2 has atomic number  6 and mass  12.00000
 Atom     3 has atomic number  6 and mass  12.00000
 Atom     4 has atomic number  1 and mass   1.00783
 Atom     5 has atomic number  1 and mass   1.00783
 Atom     6 has atomic number  1 and mass   1.00783
 Atom     7 has atomic number  1 and mass   1.00783
 Atom     8 has atomic number  1 and mass   1.00783
 Atom     9 has atomic number  1 and mass   1.00783
 Atom    10 has atomic number  1 and mass   1.00783
 Atom    11 has atomic number  1 and mass   1.00783
 Molecular mass:    44.06260 amu.
 Principal axes and moments of inertia in atomic units:
                           1         2         3
     Eigenvalues --    61.48989 212.37868 240.41067
           X           -0.00000   0.00000   1.00000
           Y            1.00000   0.00000  -0.00000
           Z           -0.00000   1.00000  -0.00000
 This molecule is an asymmetric top.
 Rotational symmetry number  2.
 Rotational temperatures (Kelvin)      1.40859     0.40783     0.36027
 Rotational constants (GHZ):          29.35021     8.49775     7.50691
 Zero-point vibrational energy     272971.1 (Joules/Mol)
                                   65.24167 (Kcal/Mol)
 Warning -- explicit consideration of  27 degrees of freedom as
           vibrations may cause significant error
 Identified internal rotation modes:
   34   2
 Vibrational temperatures:    310.74   400.00   535.40  1083.40  1282.39
          (Kelvin)           1313.98  1344.32  1551.48  1698.92  1745.93
                             1895.99  1963.83  2027.35  2046.64  2149.97
                             2152.49  2159.76  2176.78  2182.76  4393.45
                             4395.27  4402.22  4441.79  4488.31  4503.21
                             4506.30  4509.06
 
 Zero-point correction=                           0.103969 (Hartree/Particle)
 Thermal correction to Energy=                    0.486158
 Thermal correction to Enthalpy=                  0.501993
 Thermal correction to Gibbs Free Energy=        -0.975368
 Sum of electronic and zero-point Energies=           -118.996677
 Sum of electronic and thermal Energies=              -118.614488
 Sum of electronic and thermal Enthalpies=            -118.598654
 Sum of electronic and thermal Free Energies=         -120.076015
 
                     E (Thermal)             CV                S
                      KCal/Mol        Cal/Mol-Kelvin    Cal/Mol-Kelvin
 Total                  305.069             58.247            185.412
 Corrected for 
 internal rot.          297.999             56.310            183.364
 Electronic               0.000              0.000              0.000
 Translational           14.904              2.981             51.309
 Rotational              14.904              2.981             29.694
 Vibrational            275.261             52.285            104.409
 Vibration     1          9.939              1.987              7.508
 Vibration     2          9.941              1.986              7.007
 Vibration     3          9.946              1.985              6.428
 Vibration     4          9.975              1.979              5.030
 Vibration     5          9.990              1.976              4.697
 Vibration     6          9.993              1.976              4.649
 Vibration     7          9.996              1.975              4.603
 Vibration     8         10.016              1.971              4.321
 Vibration     9         10.031              1.968              4.142
 Vibration    10         10.037              1.967              4.088
 Vibration    11         10.055              1.964              3.926
 Vibration    12         10.063              1.962              3.857
 Vibration    13         10.072              1.960              3.795
 Vibration    14         10.074              1.960              3.776
 Vibration    15         10.089              1.957              3.680
 Vibration    16         10.089              1.957              3.677
 Vibration    17         10.090              1.957              3.671
 Vibration    18         10.092              1.956              3.655
 Vibration    19         10.093              1.956              3.650
 Vibration    20         10.567              1.864              2.307
 Vibration    21         10.568              1.864              2.306
 Vibration    22         10.570              1.864              2.303
 Vibration    23         10.581              1.862              2.287
 Vibration    24         10.594              1.859              2.267
 Vibration    25         10.599              1.858              2.261
 Vibration    26         10.600              1.858              2.260
 Vibration    27         10.600              1.858              2.259
                       Q            Log10(Q)             Ln(Q)
 Total Bot       0.565302D+27         26.752281         61.599403
 Corrected for 
 Internal rot.   0.410927D+27         26.613765         61.280458
 Total V=0       0.401731D+30         29.603935         68.165580
 Corrected for 
 Internal rot.   0.292024D+30         29.465419         67.846634
 Vib (Bot)       0.611855D+11         10.786648         24.837176
 Vib (Bot)    1  0.160882D+02          1.206508          2.778087
 Vib (Bot)    2  0.124967D+02          1.096795          2.525463
 Vib (Bot)    3  0.933443D+01          0.970088          2.233710
 Vib (Bot)    4  0.460606D+01          0.663330          1.527374
 Vib (Bot)    5  0.388830D+01          0.589760          1.357973
 Vib (Bot)    6  0.379431D+01          0.579132          1.333501
 Vib (Bot)    7  0.370817D+01          0.569159          1.310537
 Vib (Bot)    8  0.320984D+01          0.506483          1.166221
 Vib (Bot)    9  0.292894D+01          0.466710          1.074640
 Vib (Bot)   10  0.284931D+01          0.454739          1.047076
 Vib (Bot)   11  0.262141D+01          0.418534          0.963711
 Vib (Bot)   12  0.252975D+01          0.403078          0.928121
 Vib (Bot)   13  0.244945D+01          0.389069          0.895865
 Vib (Bot)   14  0.242606D+01          0.384901          0.886268
 Vib (Bot)   15  0.230779D+01          0.363196          0.836291
 Vib (Bot)   16  0.230505D+01          0.362680          0.835101
 Vib (Bot)   17  0.229717D+01          0.361193          0.831678
 Vib (Bot)   18  0.227893D+01          0.357730          0.823704
 Vib (Bot)   19  0.227259D+01          0.356520          0.820918
 Vib (Bot)   20  0.110225D+01          0.042281          0.097356
 Vib (Bot)   21  0.110177D+01          0.042090          0.096916
 Vib (Bot)   22  0.109992D+01          0.041361          0.095236
 Vib (Bot)   23  0.108949D+01          0.037224          0.085711
 Vib (Bot)   24  0.107746D+01          0.032402          0.074609
 Vib (Bot)   25  0.107366D+01          0.030867          0.071074
 Vib (Bot)   26  0.107288D+01          0.030550          0.070344
 Vib (Bot)   27  0.107218D+01          0.030266          0.069691
 Vib (V=0)       0.434813D+14         13.638303         31.403352
 Vib (V=0)    1  0.165960D+02          1.220003          2.809161
 Vib (V=0)    2  0.130067D+02          1.114167          2.565463
 Vib (V=0)    3  0.984781D+01          0.993340          2.287249
 Vib (V=0)    4  0.513312D+01          0.710382          1.635714
 Vib (V=0)    5  0.442032D+01          0.645454          1.486212
 Vib (V=0)    6  0.432711D+01          0.636198          1.464899
 Vib (V=0)    7  0.424172D+01          0.627542          1.444970
 Vib (V=0)    8  0.374855D+01          0.573863          1.321369
 Vib (V=0)    9  0.347131D+01          0.540493          1.244532
 Vib (V=0)   10  0.339285D+01          0.530564          1.221669
 Vib (V=0)   11  0.316866D+01          0.500876          1.153310
 Vib (V=0)   12  0.307869D+01          0.488366          1.124504
 Vib (V=0)   13  0.299997D+01          0.477116          1.098601
 Vib (V=0)   14  0.297705D+01          0.473785          1.090931
 Vib (V=0)   15  0.286133D+01          0.456569          1.051288
 Vib (V=0)   16  0.285865D+01          0.456161          1.050350
 Vib (V=0)   17  0.285095D+01          0.454990          1.047654
 Vib (V=0)   18  0.283313D+01          0.452267          1.041383
 Vib (V=0)   19  0.282694D+01          0.451316          1.039195
 Vib (V=0)   20  0.171036D+01          0.233086          0.536701
 Vib (V=0)   21  0.170991D+01          0.232974          0.536443
 Vib (V=0)   22  0.170823D+01          0.232546          0.535458
 Vib (V=0)   23  0.169875D+01          0.230128          0.529890
 Vib (V=0)   24  0.168782D+01          0.227327          0.523440
 Vib (V=0)   25  0.168438D+01          0.226439          0.521395
 Vib (V=0)   26  0.168367D+01          0.226256          0.520974
 Vib (V=0)   27  0.168303D+01          0.226092          0.520597
 Electronic      0.100000D+01          0.000000          0.000000
 Translational   0.134147D+11         10.127580         23.319614
 Rotational      0.688736D+06          5.838053         13.442613
 ***** Axes restored to original set *****
 -------------------------------------------------------------------
 Center     Atomic                   Forces (Hartrees/Bohr)
 Number     Number              X              Y              Z
 -------------------------------------------------------------------
      1        6           0.000015326    0.000002973   -0.000029035
      2        6          -0.000019194   -0.000002765    0.000027004
      3        6           0.000022409    0.000002463   -0.000024052
      4        1          -0.000009468   -0.000000831    0.000008116
      5        1          -0.000004336    0.000001457    0.000009580
      6        1          -0.000004336   -0.000003368    0.000009086
      7        1           0.000009468    0.000001509   -0.000013305
      8        1           0.000009468    0.000001219   -0.000013335
      9        1          -0.000007400    0.000001678    0.000007425
     10        1          -0.000004536   -0.000001186    0.000011585
     11        1          -0.000007400   -0.000003148    0.000006931
 -------------------------------------------------------------------
 Cartesian Forces:  Max     0.000029035 RMS     0.000011781
 FormGI is forming the generalized inverse of G from B-inverse, IUseBI=4.

 ----------------------------------------------------------------------

 Electric dipole moment (input orientation):
 (Debye = 10**-18 statcoulomb cm , SI units = C m)
                  (au)            (Debye)         (10**-30 SI)
   Tot        0.347469D-01      0.883178D-01      0.294597D+00
   x          0.200612D-01      0.509904D-01      0.170086D+00
   y          0.289004D-02      0.734576D-02      0.245028D-01
   z         -0.282231D-01     -0.717360D-01     -0.239286D+00

 Dipole polarizability, Alpha (input orientation).
 (esu units = cm**3 , SI units = C**2 m**2 J**-1)
 Alpha(0;0):
               (au)            (10**-24 esu)      (10**-40 SI)
   iso        0.381148D+02      0.564803D+01      0.628428D+01
   aniso      0.526960D+01      0.780875D+00      0.868840D+00
   xx         0.400851D+02      0.594000D+01      0.660914D+01
   yx        -0.201994D+00     -0.299324D-01     -0.333043D-01
   yy         0.356087D+02      0.527666D+01      0.587107D+01
   zx         0.197265D+01      0.292316D+00      0.325246D+00
   zy        -0.314802D+00     -0.466489D-01     -0.519039D-01
   zz         0.386507D+02      0.572744D+01      0.637264D+01

 ----------------------------------------------------------------------

 Dipole orientation:
     6          1.61446061         -0.05561000          1.00826912
     6          4.00668847          0.02206372          2.62022300
     6          6.39891633          0.09973744          1.00826912
     1         -0.08821996         -0.11089468          2.17220019
     1          1.60569908         -1.72399004         -0.21025847
     1          1.49748971          1.60868760         -0.21025847
     1          4.06040925         -1.63245116          3.85862801
     1          3.95296770          1.67657860          3.85862801
     1          6.51588724         -1.56456016         -0.21025847
     1          8.10159691          0.15502212          2.17220019
     1          6.40767786          1.76811747         -0.21025847

 Electric dipole moment (dipole orientation):
 (Debye = 10**-18 statcoulomb cm , SI units = C m)
                  (au)            (Debye)         (10**-30 SI)
   Tot        0.347469D-01      0.883178D-01      0.294597D+00
   x          0.000000D+00      0.000000D+00      0.000000D+00
   y          0.000000D+00      0.000000D+00      0.000000D+00
   z          0.347469D-01      0.883178D-01      0.294597D+00

 Dipole polarizability, Alpha (dipole orientation).
 (esu units = cm**3 , SI units = C**2 m**2 J**-1)
 Alpha(0;0):
               (au)            (10**-24 esu)      (10**-40 SI)
   iso        0.381148D+02      0.564803D+01      0.628428D+01
   aniso      0.526960D+01      0.780875D+00      0.868840D+00
   xx         0.414810D+02      0.614686D+01      0.683930D+01
   yx         0.191718D+00      0.284097D-01      0.316101D-01
   yy         0.355826D+02      0.527280D+01      0.586679D+01
   zx         0.000000D+00      0.000000D+00      0.000000D+00
   zy         0.000000D+00      0.000000D+00      0.000000D+00
   zz         0.372808D+02      0.552444D+01      0.614677D+01

 ----------------------------------------------------------------------

 This type of calculation cannot be archived.


 A CHEMICAL PHYSICIST MAKES PRECISE MEASUREMENTS ON IMPURE COMPOUNDS.
 A THEORETICAL PHYSICAL CHEMIST MAKES IMPRECISE
     MEASUREMENTS ON PURE COMPOUNDS.
 AN EXPERIMENTAL PHYSICAL CHEMIST MAKES IMPRECISE
     MEASUREMENTS ON IMPURE COMPOUNDS.
 Job cpu time:       0 days  0 hours  0 minutes  0.5 seconds.
 Elapsed time:       0 days  0 hours  0 minutes  0.5 seconds.
 File lengths (MBytes):  RWF=      6 Int=      0 D2E=      0 Chk=      2 Scr=      1
 Normal termination of Gaussian 16 at Mon Jul 25 13:50:36 2022.
