 Entering Gaussian System, Link 0=g16
 Initial command:
 /software//g16/l1.exe "/home/tmp/g16/Gau-460755.inp" -scrdir="/home/tmp/g16/"
 Entering Link 1 = /software//g16/l1.exe PID=    460758.
  
 Copyright (c) 1988-2019, Gaussian, Inc.  All Rights Reserved.
  
 This is part of the Gaussian(R) 16 program.  It is based on
 the Gaussian(R) 09 system (copyright 2009, Gaussian, Inc.),
 the Gaussian(R) 03 system (copyright 2003, Gaussian, Inc.),
 the Gaussian(R) 98 system (copyright 1998, Gaussian, Inc.),
 the Gaussian(R) 94 system (copyright 1995, Gaussian, Inc.),
 the Gaussian 92(TM) system (copyright 1992, Gaussian, Inc.),
 the Gaussian 90(TM) system (copyright 1990, Gaussian, Inc.),
 the Gaussian 88(TM) system (copyright 1988, Gaussian, Inc.),
 the Gaussian 86(TM) system (copyright 1986, Carnegie Mellon
 University), and the Gaussian 82(TM) system (copyright 1983,
 Carnegie Mellon University). Gaussian is a federally registered
 trademark of Gaussian, Inc.
  
 This software contains proprietary and confidential information,
 including trade secrets, belonging to Gaussian, Inc.
  
 This software is provided under written license and may be
 used, copied, transmitted, or stored only in accord with that
 written license.
  
 The following legend is applicable only to US Government
 contracts under FAR:
  
                    RESTRICTED RIGHTS LEGEND
  
 Use, reproduction and disclosure by the US Government is
 subject to restrictions as set forth in subparagraphs (a)
 and (c) of the Commercial Computer Software - Restricted
 Rights clause in FAR 52.227-19.
  
 Gaussian, Inc.
 340 Quinnipiac St., Bldg. 40, Wallingford CT 06492
  
  
 ---------------------------------------------------------------
 Warning -- This program may not be used in any manner that
 competes with the business of Gaussian, Inc. or will provide
 assistance to any competitor of Gaussian, Inc.  The licensee
 of this program is prohibited from giving any competitor of
 Gaussian, Inc. access to this program.  By using this program,
 the user acknowledges that Gaussian, Inc. is engaged in the
 business of creating and licensing software in the field of
 computational chemistry and represents and warrants to the
 licensee that it is not a competitor of Gaussian, Inc. and that
 it will not use this program in any manner prohibited above.
 ---------------------------------------------------------------
  

 Cite this work as:
 Gaussian 16, Revision C.01,
 M. J. Frisch, G. W. Trucks, H. B. Schlegel, G. E. Scuseria, 
 M. A. Robb, J. R. Cheeseman, G. Scalmani, V. Barone, 
 G. A. Petersson, H. Nakatsuji, X. Li, M. Caricato, A. V. Marenich, 
 J. Bloino, B. G. Janesko, R. Gomperts, B. Mennucci, H. P. Hratchian, 
 J. V. Ortiz, A. F. Izmaylov, J. L. Sonnenberg, D. Williams-Young, 
 F. Ding, F. Lipparini, F. Egidi, J. Goings, B. Peng, A. Petrone, 
 T. Henderson, D. Ranasinghe, V. G. Zakrzewski, J. Gao, N. Rega, 
 G. Zheng, W. Liang, M. Hada, M. Ehara, K. Toyota, R. Fukuda, 
 J. Hasegawa, M. Ishida, T. Nakajima, Y. Honda, O. Kitao, H. Nakai, 
 T. Vreven, K. Throssell, J. A. Montgomery, Jr., J. E. Peralta, 
 F. Ogliaro, M. J. Bearpark, J. J. Heyd, E. N. Brothers, K. N. Kudin, 
 V. N. Staroverov, T. A. Keith, R. Kobayashi, J. Normand, 
 K. Raghavachari, A. P. Rendell, J. C. Burant, S. S. Iyengar, 
 J. Tomasi, M. Cossi, J. M. Millam, M. Klene, C. Adamo, R. Cammi, 
 J. W. Ochterski, R. L. Martin, K. Morokuma, O. Farkas, 
 J. B. Foresman, and D. J. Fox, Gaussian, Inc., Wallingford CT, 2019.
 
 ******************************************
 Gaussian 16:  ES64L-G16RevC.01  3-Jul-2019
                25-Jul-2022 
 ******************************************
 %nprocshared=8
 Will use up to    8 processors via shared memory.
 %chk=CCCC.chk
 ----------------------------------------------------------------------
 # opt freq=hinderedrotor M062X/6-311++g(d,p) symm=veryloose press=0.98
 7
 ----------------------------------------------------------------------
 1/18=20,19=15,26=3,38=1,113=-987000/1,3;
 2/9=110,12=2,17=2,18=2,40=1/2;
 3/5=4,6=6,7=1111,11=2,25=1,30=1,71=1,74=-55/1,2,3;
 4//1;
 5/5=2,38=5/2;
 6/7=2,8=2,9=2,10=2,28=1/1;
 7//1,2,3,16;
 1/18=20,19=15,26=3/3(2);
 2/9=110/2;
 99//99;
 2/9=110/2;
 3/5=4,6=6,7=1111,11=2,25=1,30=1,71=1,74=-55/1,2,3;
 4/5=5,16=3,69=1/1;
 5/5=2,38=5/2;
 7//1,2,3,16;
 1/18=20,19=15,26=3/3(-5);
 2/9=110/2;
 6/7=2,8=2,9=2,10=2,19=2,28=1/1;
 99/9=1/99;
 ------
 CCCC_1
 ------
 Symbolic Z-matrix:
 Charge =  0 Multiplicity = 1
 C                     0.91349  -0.03951   0.06172 
 C                     2.43338  -0.05017   0.05324 
 C                     2.97653  -1.16698  -0.83564 
 C                     4.49642  -1.17764  -0.84412 
 H                     0.54333   0.76642   0.70317 
 H                     0.51756  -0.9864    0.44213 
 H                     0.51756   0.11872  -0.94638 
 H                     2.79893  -0.17869   1.07865 
 H                     2.79893   0.92025  -0.30209 
 H                     2.61098  -1.03846  -1.86105 
 H                     2.61098  -2.1374   -0.48031 
 H                     4.89235  -0.23074  -1.22453 
 H                     4.86658  -1.98356  -1.48557 
 H                     4.89235  -1.33587   0.16398 
 

 GradGradGradGradGradGradGradGradGradGradGradGradGradGradGradGradGradGrad
 Berny optimization.
 Initialization pass.
                           ----------------------------
                           !    Initial Parameters    !
                           ! (Angstroms and Degrees)  !
 --------------------------                            --------------------------
 ! Name  Definition              Value          Derivative Info.                !
 --------------------------------------------------------------------------------
 ! R1    R(1,2)                  1.52           estimate D2E/DX2                !
 ! R2    R(1,5)                  1.0945         estimate D2E/DX2                !
 ! R3    R(1,6)                  1.0946         estimate D2E/DX2                !
 ! R4    R(1,7)                  1.0946         estimate D2E/DX2                !
 ! R5    R(2,3)                  1.5272         estimate D2E/DX2                !
 ! R6    R(2,8)                  1.0962         estimate D2E/DX2                !
 ! R7    R(2,9)                  1.0962         estimate D2E/DX2                !
 ! R8    R(3,4)                  1.52           estimate D2E/DX2                !
 ! R9    R(3,10)                 1.0962         estimate D2E/DX2                !
 ! R10   R(3,11)                 1.0962         estimate D2E/DX2                !
 ! R11   R(4,12)                 1.0946         estimate D2E/DX2                !
 ! R12   R(4,13)                 1.0945         estimate D2E/DX2                !
 ! R13   R(4,14)                 1.0946         estimate D2E/DX2                !
 ! A1    A(2,1,5)              110.2801         estimate D2E/DX2                !
 ! A2    A(2,1,6)              110.9517         estimate D2E/DX2                !
 ! A3    A(2,1,7)              110.952          estimate D2E/DX2                !
 ! A4    A(5,1,6)              108.1178         estimate D2E/DX2                !
 ! A5    A(5,1,7)              108.1184         estimate D2E/DX2                !
 ! A6    A(6,1,7)              108.3188         estimate D2E/DX2                !
 ! A7    A(1,2,3)              111.3466         estimate D2E/DX2                !
 ! A8    A(1,2,8)              109.2121         estimate D2E/DX2                !
 ! A9    A(1,2,9)              109.212          estimate D2E/DX2                !
 ! A10   A(3,2,8)              109.8838         estimate D2E/DX2                !
 ! A11   A(3,2,9)              109.8837         estimate D2E/DX2                !
 ! A12   A(8,2,9)              107.2063         estimate D2E/DX2                !
 ! A13   A(2,3,4)              111.3466         estimate D2E/DX2                !
 ! A14   A(2,3,10)             109.8838         estimate D2E/DX2                !
 ! A15   A(2,3,11)             109.8837         estimate D2E/DX2                !
 ! A16   A(4,3,10)             109.2121         estimate D2E/DX2                !
 ! A17   A(4,3,11)             109.212          estimate D2E/DX2                !
 ! A18   A(10,3,11)            107.2063         estimate D2E/DX2                !
 ! A19   A(3,4,12)             110.9515         estimate D2E/DX2                !
 ! A20   A(3,4,13)             110.2803         estimate D2E/DX2                !
 ! A21   A(3,4,14)             110.952          estimate D2E/DX2                !
 ! A22   A(12,4,13)            108.1177         estimate D2E/DX2                !
 ! A23   A(12,4,14)            108.3187         estimate D2E/DX2                !
 ! A24   A(13,4,14)            108.1186         estimate D2E/DX2                !
 ! D1    D(5,1,2,3)            179.9999         estimate D2E/DX2                !
 ! D2    D(5,1,2,8)             58.4733         estimate D2E/DX2                !
 ! D3    D(5,1,2,9)            -58.4738         estimate D2E/DX2                !
 ! D4    D(6,1,2,3)             60.2324         estimate D2E/DX2                !
 ! D5    D(6,1,2,8)            -61.2942         estimate D2E/DX2                !
 ! D6    D(6,1,2,9)           -178.2413         estimate D2E/DX2                !
 ! D7    D(7,1,2,3)            -60.2316         estimate D2E/DX2                !
 ! D8    D(7,1,2,8)            178.2418         estimate D2E/DX2                !
 ! D9    D(7,1,2,9)             61.2947         estimate D2E/DX2                !
 ! D10   D(1,2,3,4)            180.0            estimate D2E/DX2                !
 ! D11   D(1,2,3,10)            58.8652         estimate D2E/DX2                !
 ! D12   D(1,2,3,11)           -58.8655         estimate D2E/DX2                !
 ! D13   D(8,2,3,4)            -58.8652         estimate D2E/DX2                !
 ! D14   D(8,2,3,10)           180.0            estimate D2E/DX2                !
 ! D15   D(8,2,3,11)            62.2693         estimate D2E/DX2                !
 ! D16   D(9,2,3,4)             58.8655         estimate D2E/DX2                !
 ! D17   D(9,2,3,10)           -62.2693         estimate D2E/DX2                !
 ! D18   D(9,2,3,11)           180.0            estimate D2E/DX2                !
 ! D19   D(2,3,4,12)           -60.2322         estimate D2E/DX2                !
 ! D20   D(2,3,4,13)          -179.9995         estimate D2E/DX2                !
 ! D21   D(2,3,4,14)            60.2316         estimate D2E/DX2                !
 ! D22   D(10,3,4,12)           61.2944         estimate D2E/DX2                !
 ! D23   D(10,3,4,13)          -58.473          estimate D2E/DX2                !
 ! D24   D(10,3,4,14)         -178.2418         estimate D2E/DX2                !
 ! D25   D(11,3,4,12)          178.2415         estimate D2E/DX2                !
 ! D26   D(11,3,4,13)           58.4741         estimate D2E/DX2                !
 ! D27   D(11,3,4,14)          -61.2947         estimate D2E/DX2                !
 --------------------------------------------------------------------------------
 Trust Radius=3.00D-01 FncErr=1.00D-07 GrdErr=1.00D-06 EigMax=2.50D+02 EigMin=1.00D-04
 Number of steps in this run=     74 maximum allowed number of steps=    100.
 GradGradGradGradGradGradGradGradGradGradGradGradGradGradGradGradGradGrad

                          Input orientation:                          
 ---------------------------------------------------------------------
 Center     Atomic      Atomic             Coordinates (Angstroms)
 Number     Number       Type             X           Y           Z
 ---------------------------------------------------------------------
      1          6           0        0.913490   -0.039510    0.061720
      2          6           0        2.433380   -0.050170    0.053240
      3          6           0        2.976530   -1.166980   -0.835640
      4          6           0        4.496420   -1.177640   -0.844120
      5          1           0        0.543330    0.766420    0.703170
      6          1           0        0.517560   -0.986400    0.442130
      7          1           0        0.517560    0.118720   -0.946380
      8          1           0        2.798930   -0.178690    1.078650
      9          1           0        2.798930    0.920250   -0.302090
     10          1           0        2.610980   -1.038460   -1.861050
     11          1           0        2.610980   -2.137400   -0.480310
     12          1           0        4.892350   -0.230740   -1.224530
     13          1           0        4.866580   -1.983560   -1.485570
     14          1           0        4.892350   -1.335870    0.163980
 ---------------------------------------------------------------------
                    Distance matrix (angstroms):
                    1          2          3          4          5
     1  C    0.000000
     2  C    1.519951   0.000000
     3  C    2.516461   1.527215   0.000000
     4  C    3.866946   2.516461   1.519951   0.000000
     5  H    1.094532   2.159055   3.467915   4.669089   0.000000
     6  H    1.094565   2.167517   2.777020   4.185969   1.772339
     7  H    1.094561   2.167517   2.777017   4.185969   1.772342
     8  H    2.146719   1.096180   2.161658   2.752529   2.474257
     9  H    2.146714   1.096176   2.161654   2.752528   2.474256
    10  H    2.752529   2.161658   1.096180   2.146719   3.756061
    11  H    2.752528   2.161654   1.096176   2.146714   3.756058
    12  H    4.185969   2.777019   2.167521   1.094574   4.860487
    13  H    4.669085   3.467909   2.159051   1.094524   5.571666
    14  H    4.185969   2.777017   2.167517   1.094561   4.860486
                    6          7          8          9         10
     6  H    0.000000
     7  H    1.774613   0.000000
     8  H    2.502439   3.064939   0.000000
     9  H    3.064935   2.502441   1.764685   0.000000
    10  H    3.112837   2.560878   3.068610   2.510424   0.000000
    11  H    2.560880   3.112829   2.510424   3.068601   1.764685
    12  H    4.742106   4.397531   3.112837   2.560875   2.502442
    13  H    4.860487   4.860482   3.756056   3.756050   2.474254
    14  H    4.397532   4.742101   2.560878   3.112829   3.064939
                   11         12         13         14
    11  H    0.000000
    12  H    3.064941   0.000000
    13  H    2.474257   1.772339   0.000000
    14  H    2.502441   1.774619   1.772338   0.000000
 Stoichiometry    C4H10
 Framework group  C2H[SGH(C4H2),X(H8)]
 Deg. of freedom    11
 Full point group                 C2H     NOp   4
 Largest Abelian subgroup         C2H     NOp   4
 Largest concise Abelian subgroup C2H     NOp   4
                         Standard orientation:                         
 ---------------------------------------------------------------------
 Center     Atomic      Atomic             Coordinates (Angstroms)
 Number     Number       Type             X           Y           Z
 ---------------------------------------------------------------------
      1          6           0       -0.711220    1.797911   -0.000000
      2          6           0       -0.711220    0.277960   -0.000000
      3          6           0        0.711220   -0.277960    0.000000
      4          6           0        0.711220   -1.797911   -0.000000
      5          1           0       -1.737901    2.177287   -0.000000
      6          1           0       -0.203718    2.189307   -0.887311
      7          1           0       -0.203718    2.189307    0.887311
      8          1           0       -1.252484   -0.082755   -0.882341
      9          1           0       -1.252484   -0.082755    0.882341
     10          1           0        1.252484    0.082755    0.882341
     11          1           0        1.252484    0.082755   -0.882341
     12          1           0        0.203718   -2.189307    0.887311
     13          1           0        1.737901   -2.177287   -0.000000
     14          1           0        0.203718   -2.189307   -0.887311
 ---------------------------------------------------------------------
 Rotational constants (GHZ):          23.0952856           3.7176418           3.4806126
 Standard basis: 6-311++G(d,p) (5D, 7F)
 There are    54 symmetry adapted cartesian basis functions of AG  symmetry.
 There are    27 symmetry adapted cartesian basis functions of BG  symmetry.
 There are    27 symmetry adapted cartesian basis functions of AU  symmetry.
 There are    54 symmetry adapted cartesian basis functions of BU  symmetry.
 There are    52 symmetry adapted basis functions of AG  symmetry.
 There are    27 symmetry adapted basis functions of BG  symmetry.
 There are    27 symmetry adapted basis functions of AU  symmetry.
 There are    52 symmetry adapted basis functions of BU  symmetry.
   158 basis functions,   234 primitive gaussians,   162 cartesian basis functions
    17 alpha electrons       17 beta electrons
       nuclear repulsion energy       131.2164537964 Hartrees.
 NAtoms=   14 NActive=   14 NUniq=    5 SFac= 4.00D+00 NAtFMM=   60 NAOKFM=F Big=F
 Integral buffers will be    131072 words long.
 Raffenetti 2 integral format.
 Two-electron integral symmetry is turned on.
 One-electron integrals computed using PRISM.
 NBasis=   158 RedAO= T EigKep=  2.21D-05  NBF=    52    27    27    52
 NBsUse=   158 1.00D-06 EigRej= -1.00D+00 NBFU=    52    27    27    52
 ExpMin= 3.60D-02 ExpMax= 4.56D+03 ExpMxC= 6.82D+02 IAcc=3 IRadAn=         5 AccDes= 0.00D+00
 Harris functional with IExCor= 1009 and IRadAn=       5 diagonalized for initial guess.
 HarFok:  IExCor= 1009 AccDes= 0.00D+00 IRadAn=         5 IDoV= 1 UseB2=F ITyADJ=14
 ICtDFT=  3500011 ScaDFX=  1.000000  1.000000  1.000000  1.000000
 FoFCou: FMM=F IPFlag=           0 FMFlag=      100000 FMFlg1=           0
         NFxFlg=           0 DoJE=T BraDBF=F KetDBF=T FulRan=T
         wScrn=  0.000000 ICntrl=       500 IOpCl=  0 I1Cent=   200000004 NGrid=           0
         NMat0=    1 NMatS0=      1 NMatT0=    0 NMatD0=    1 NMtDS0=    0 NMtDT0=    0
 Petite list used in FoFCou.
 Initial guess orbital symmetries:
       Occupied  (BU) (AG) (AG) (BU) (AG) (BU) (AG) (BU) (AU) (AG)
                 (BU) (BG) (BU) (AG) (AU) (AG) (BG)
       Virtual   (AG) (BU) (AU) (BU) (AG) (AG) (BU) (BG) (BG) (AG)
                 (AU) (BU) (BU) (AG) (AU) (BU) (BG) (AG) (AU) (BU)
                 (AG) (BU) (AG) (BU) (AU) (BG) (AG) (BG) (AU) (BU)
                 (BU) (AG) (BG) (AG) (BU) (BU) (AG) (AG) (BU) (AG)
                 (AU) (BU) (BG) (AU) (AG) (BU) (BG) (AG) (BU) (AU)
                 (AG) (AU) (AG) (BG) (BU) (BU) (BG) (AG) (AG) (BU)
                 (BU) (AG) (BU) (AU) (AG) (BU) (BU) (AG) (BG) (BG)
                 (AU) (BU) (BG) (AG) (AU) (AG) (BG) (AU) (BG) (BU)
                 (AG) (AU) (BU) (AG) (AU) (BU) (BG) (AU) (BU) (AG)
                 (BG) (BU) (AU) (AG) (BU) (AG) (BG) (AG) (BU) (BU)
                 (AG) (AU) (AG) (BG) (BU) (AG) (BU) (AU) (AG) (BG)
                 (AU) (BU) (BU) (BG) (AG) (AG) (BG) (BU) (AU) (BG)
                 (AU) (BU) (AG) (BU) (AG) (AG) (BU) (AG) (AU) (BG)
                 (BU) (AG) (AU) (BG) (BU) (AG) (BU) (BU) (AG) (AG)
                 (BU)
 The electronic state of the initial guess is 1-AG.
 Keep R1 ints in memory in symmetry-blocked form, NReq=98877001.
 Requested convergence on RMS density matrix=1.00D-08 within 128 cycles.
 Requested convergence on MAX density matrix=1.00D-06.
 Requested convergence on             energy=1.00D-06.
 No special actions if energy rises.
 SCF Done:  E(RM062X) =  -158.403596696     A.U. after   10 cycles
            NFock= 10  Conv=0.43D-08     -V/T= 2.0048

 **********************************************************************

            Population analysis using the SCF Density.

 **********************************************************************

 Orbital symmetries:
       Occupied  (AG) (BU) (AG) (BU) (AG) (BU) (AG) (BU) (AU) (AG)
                 (BU) (BG) (BU) (AU) (AG) (BG) (AG)
       Virtual   (AG) (BU) (BU) (AU) (AG) (AG) (BG) (BG) (BU) (AG)
                 (AU) (BU) (AU) (BU) (AG) (BU) (AG) (BU) (AU) (AG)
                 (BG) (AG) (AG) (BG) (BU) (BU) (AU) (BG) (BU) (AG)
                 (AU) (BG) (BU) (AG) (BU) (AG) (BU) (AG) (BU) (AG)
                 (BG) (AU) (BU) (AU) (AG) (BU) (AG) (BG) (BU) (AU)
                 (AG) (AU) (BU) (BG) (AG) (BU) (BG) (AG) (AG) (BU)
                 (BU) (AG) (BU) (AG) (AU) (BU) (BU) (AG) (BG) (BG)
                 (AU) (BU) (BG) (AU) (AG) (BG) (AU) (AG) (BG) (BU)
                 (AU) (AG) (BU) (AG) (AU) (BU) (BG) (AU) (BU) (AG)
                 (BG) (BU) (AG) (AU) (BU) (AG) (AG) (BG) (BU) (BU)
                 (AG) (AU) (AG) (BG) (BU) (AG) (AU) (BU) (BG) (BU)
                 (AG) (AU) (BG) (AG) (BU) (BU) (BG) (AG) (AU) (BG)
                 (AU) (BU) (AG) (BU) (AG) (AG) (BU) (AG) (BG) (AU)
                 (BU) (AG) (AU) (BG) (BU) (AG) (BU) (BU) (AG) (AG)
                 (BU)
 The electronic state is 1-AG.
 Alpha  occ. eigenvalues --  -10.52634 -10.52596 -10.51908 -10.51907  -0.89528
 Alpha  occ. eigenvalues --   -0.81769  -0.71205  -0.65678  -0.54230  -0.49461
 Alpha  occ. eigenvalues --   -0.48288  -0.47789  -0.42893  -0.41010  -0.39176
 Alpha  occ. eigenvalues --   -0.38264  -0.37428
 Alpha virt. eigenvalues --    0.00153   0.01373   0.01829   0.01983   0.04062
 Alpha virt. eigenvalues --    0.04427   0.04928   0.05087   0.07133   0.07566
 Alpha virt. eigenvalues --    0.08234   0.08902   0.11499   0.11588   0.13657
 Alpha virt. eigenvalues --    0.14493   0.14494   0.15156   0.15205   0.15974
 Alpha virt. eigenvalues --    0.16337   0.17270   0.17735   0.17916   0.19659
 Alpha virt. eigenvalues --    0.19966   0.20580   0.23425   0.23696   0.24618
 Alpha virt. eigenvalues --    0.25238   0.26269   0.29059   0.30240   0.30942
 Alpha virt. eigenvalues --    0.32741   0.34192   0.35278   0.36820   0.46033
 Alpha virt. eigenvalues --    0.46994   0.47643   0.48372   0.49101   0.51665
 Alpha virt. eigenvalues --    0.56620   0.64165   0.64252   0.68270   0.70118
 Alpha virt. eigenvalues --    0.71399   0.71424   0.71918   0.71930   0.72916
 Alpha virt. eigenvalues --    0.73702   0.74321   0.77133   0.79251   0.80231
 Alpha virt. eigenvalues --    0.82589   0.88208   0.95923   0.98640   1.02631
 Alpha virt. eigenvalues --    1.03490   1.08323   1.18495   1.27469   1.31512
 Alpha virt. eigenvalues --    1.33007   1.40329   1.50986   1.51314   1.51916
 Alpha virt. eigenvalues --    1.59148   1.59233   1.60418   1.61823   1.62442
 Alpha virt. eigenvalues --    1.62799   1.63830   1.68452   1.69893   1.72833
 Alpha virt. eigenvalues --    1.76748   1.76872   1.78013   1.82077   1.82349
 Alpha virt. eigenvalues --    1.83881   1.94779   1.98916   1.99510   2.07765
 Alpha virt. eigenvalues --    2.08786   2.17190   2.17889   2.20002   2.23445
 Alpha virt. eigenvalues --    2.27810   2.31510   2.38953   2.42233   2.44396
 Alpha virt. eigenvalues --    2.50284   2.52023   2.52090   2.56608   2.59223
 Alpha virt. eigenvalues --    2.59611   2.59655   2.65169   2.66867   2.67331
 Alpha virt. eigenvalues --    2.70921   2.71857   2.75035   2.76811   2.79654
 Alpha virt. eigenvalues --    2.81250   2.82440   2.93062   3.00173   3.01964
 Alpha virt. eigenvalues --    3.07175   3.29601   3.44106   3.83363   3.84413
 Alpha virt. eigenvalues --    3.85098   3.86698   3.88359   3.91206   4.14865
 Alpha virt. eigenvalues --    4.27193   4.38378  23.95935  23.99366  24.05023
 Alpha virt. eigenvalues --   24.07310
          Condensed to atoms (all electrons):
               1          2          3          4          5          6
     1  C    5.447865   0.002636   0.106229  -0.087118   0.398069   0.393357
     2  C    0.002636   5.426104  -0.055423   0.106229  -0.057499  -0.000336
     3  C    0.106229  -0.055423   5.426104   0.002636   0.023427  -0.032778
     4  C   -0.087118   0.106229   0.002636   5.447865  -0.001443   0.001578
     5  H    0.398069  -0.057499   0.023427  -0.001443   0.552706  -0.028978
     6  H    0.393357  -0.000336  -0.032778   0.001578  -0.028978   0.584920
     7  H    0.393357  -0.000336  -0.032778   0.001578  -0.028978  -0.061657
     8  H   -0.052188   0.454712  -0.054095   0.000409  -0.004069  -0.022014
     9  H   -0.052188   0.454712  -0.054095   0.000409  -0.004069   0.013477
    10  H    0.000409  -0.054095   0.454712  -0.052188  -0.001573  -0.004540
    11  H    0.000409  -0.054095   0.454712  -0.052188  -0.001573   0.010797
    12  H    0.001578  -0.032778  -0.000336   0.393357  -0.000167   0.001863
    13  H   -0.001443   0.023427  -0.057499   0.398069   0.000665  -0.000167
    14  H    0.001578  -0.032778  -0.000336   0.393357  -0.000167  -0.001094
               7          8          9         10         11         12
     1  C    0.393357  -0.052188  -0.052188   0.000409   0.000409   0.001578
     2  C   -0.000336   0.454712   0.454712  -0.054095  -0.054095  -0.032778
     3  C   -0.032778  -0.054095  -0.054095   0.454712   0.454712  -0.000336
     4  C    0.001578   0.000409   0.000409  -0.052188  -0.052188   0.393357
     5  H   -0.028978  -0.004069  -0.004069  -0.001573  -0.001573  -0.000167
     6  H   -0.061657  -0.022014   0.013477  -0.004540   0.010797   0.001863
     7  H    0.584920   0.013477  -0.022014   0.010797  -0.004540  -0.001094
     8  H    0.013477   0.601215  -0.078144   0.016635  -0.024740  -0.004540
     9  H   -0.022014  -0.078144   0.601215  -0.024740   0.016635   0.010797
    10  H    0.010797   0.016635  -0.024740   0.601215  -0.078144  -0.022014
    11  H   -0.004540  -0.024740   0.016635  -0.078144   0.601215   0.013477
    12  H   -0.001094  -0.004540   0.010797  -0.022014   0.013477   0.584920
    13  H   -0.000167  -0.001573  -0.001573  -0.004069  -0.004069  -0.028978
    14  H    0.001863   0.010797  -0.004540   0.013477  -0.022014  -0.061657
              13         14
     1  C   -0.001443   0.001578
     2  C    0.023427  -0.032778
     3  C   -0.057499  -0.000336
     4  C    0.398069   0.393357
     5  H    0.000665  -0.000167
     6  H   -0.000167  -0.001094
     7  H   -0.000167   0.001863
     8  H   -0.001573   0.010797
     9  H   -0.001573  -0.004540
    10  H   -0.004069   0.013477
    11  H   -0.004069  -0.022014
    12  H   -0.028978  -0.061657
    13  H    0.552706  -0.028978
    14  H   -0.028978   0.584920
 Mulliken charges:
               1
     1  C   -0.552552
     2  C   -0.180480
     3  C   -0.180480
     4  C   -0.552552
     5  H    0.153647
     6  H    0.145573
     7  H    0.145573
     8  H    0.144119
     9  H    0.144119
    10  H    0.144119
    11  H    0.144119
    12  H    0.145573
    13  H    0.153647
    14  H    0.145573
 Sum of Mulliken charges =   0.00000
 Mulliken charges with hydrogens summed into heavy atoms:
               1
     1  C   -0.107759
     2  C    0.107759
     3  C    0.107759
     4  C   -0.107759
 Electronic spatial extent (au):  <R**2>=            418.9465
 Charge=             -0.0000 electrons
 Dipole moment (field-independent basis, Debye):
    X=             -0.0000    Y=             -0.0000    Z=             -0.0000  Tot=              0.0000
 Quadrupole moment (field-independent basis, Debye-Ang):
   XX=            -28.6397   YY=            -29.8998   ZZ=            -28.0830
   XY=              0.0564   XZ=              0.0000   YZ=              0.0000
 Traceless Quadrupole moment (field-independent basis, Debye-Ang):
   XX=              0.2345   YY=             -1.0256   ZZ=              0.7912
   XY=              0.0564   XZ=              0.0000   YZ=              0.0000
 Octapole moment (field-independent basis, Debye-Ang**2):
  XXX=              0.0000  YYY=             -0.0000  ZZZ=              0.0000  XYY=             -0.0000
  XXY=             -0.0000  XXZ=              0.0000  XZZ=              0.0000  YZZ=             -0.0000
  YYZ=              0.0000  XYZ=             -0.0000
 Hexadecapole moment (field-independent basis, Debye-Ang**3):
 XXXX=           -152.0451 YYYY=           -396.5428 ZZZZ=            -59.8012 XXXY=             63.1646
 XXXZ=             -0.0000 YYYX=             70.3732 YYYZ=              0.0000 ZZZX=             -0.0000
 ZZZY=              0.0000 XXYY=            -88.3203 XXZZ=            -35.6437 YYZZ=            -71.6436
 XXYZ=              0.0000 YYXZ=             -0.0000 ZZXY=             24.9631
 N-N= 1.312164537964D+02 E-N=-6.285190690261D+02  KE= 1.576489344311D+02
 Symmetry AG   KE= 7.636940450785D+01
 Symmetry BG   KE= 4.017172278683D+00
 Symmetry AU   KE= 3.835543016112D+00
 Symmetry BU   KE= 7.342681462848D+01
 Calling FoFJK, ICntrl=      2127 FMM=F ISym2X=1 I1Cent= 0 IOpClX= 0 NMat=1 NMatS=1 NMatT=0.
 ***** Axes restored to original set *****
 -------------------------------------------------------------------
 Center     Atomic                   Forces (Hartrees/Bohr)
 Number     Number              X              Y              Z
 -------------------------------------------------------------------
      1        6          -0.003969455    0.004214440    0.003354321
      2        6          -0.003873953   -0.003268837   -0.002601719
      3        6           0.003873953    0.003268837    0.002601719
      4        6           0.003969455   -0.004214440   -0.003354321
      5        1          -0.002040348   -0.001677399   -0.001335068
      6        1          -0.000085462    0.001061017   -0.000851991
      7        1          -0.000085466   -0.000592193    0.001225134
      8        1           0.001570263    0.000031961   -0.001423507
      9        1           0.001570259   -0.001380041    0.000350558
     10        1          -0.001570263   -0.000031961    0.001423507
     11        1          -0.001570259    0.001380041   -0.000350558
     12        1           0.000085462   -0.001061017    0.000851991
     13        1           0.002040348    0.001677399    0.001335068
     14        1           0.000085466    0.000592193   -0.001225134
 -------------------------------------------------------------------
 Cartesian Forces:  Max     0.004214440 RMS     0.002167888

 GradGradGradGradGradGradGradGradGradGradGradGradGradGradGradGradGradGrad
 Berny optimization.
 FormGI is forming the generalized inverse of G from B-inverse, IUseBI=4.
 Internal  Forces:  Max     0.006215913 RMS     0.001926176
 Search for a local minimum.
 Step number   1 out of a maximum of   74
 All quantities printed in internal units (Hartrees-Bohrs-Radians)
 Mixed Optimization -- RFO/linear search
 Second derivative matrix not updated -- first step.
 ITU=  0
     Eigenvalues ---    0.00406   0.00502   0.00502   0.03742   0.03742
     Eigenvalues ---    0.04939   0.04939   0.05621   0.05621   0.05706
     Eigenvalues ---    0.05706   0.08150   0.08150   0.12054   0.12054
     Eigenvalues ---    0.16000   0.16000   0.16000   0.16000   0.16000
     Eigenvalues ---    0.16000   0.21902   0.21902   0.29682   0.30371
     Eigenvalues ---    0.30371   0.34108   0.34108   0.34108   0.34108
     Eigenvalues ---    0.34291   0.34291   0.34291   0.34291   0.34294
     Eigenvalues ---    0.34294
 RFO step:  Lambda=-1.34150744D-03 EMin= 4.05963141D-03
 Linear search not attempted -- first point.
 Iteration  1 RMS(Cart)=  0.02193697 RMS(Int)=  0.00018307
 Iteration  2 RMS(Cart)=  0.00018262 RMS(Int)=  0.00014473
 Iteration  3 RMS(Cart)=  0.00000004 RMS(Int)=  0.00014473
 ClnCor:  largest displacement from symmetrization is 7.04D-09 for atom    10.
 Variable       Old X    -DE/DX   Delta X   Delta X   Delta X     New X
                                 (Linear)    (Quad)   (Total)
    R1        2.87229   0.00622   0.00000   0.02038   0.02038   2.89267
    R2        2.06837  -0.00133   0.00000  -0.00386  -0.00386   2.06451
    R3        2.06843  -0.00118   0.00000  -0.00344  -0.00344   2.06499
    R4        2.06843  -0.00118   0.00000  -0.00344  -0.00344   2.06499
    R5        2.88602   0.00053   0.00000   0.00179   0.00179   2.88780
    R6        2.07148  -0.00081   0.00000  -0.00237  -0.00237   2.06911
    R7        2.07148  -0.00081   0.00000  -0.00237  -0.00237   2.06911
    R8        2.87229   0.00622   0.00000   0.02038   0.02038   2.89267
    R9        2.07148  -0.00081   0.00000  -0.00237  -0.00237   2.06911
   R10        2.07148  -0.00081   0.00000  -0.00237  -0.00237   2.06911
   R11        2.06843  -0.00118   0.00000  -0.00344  -0.00344   2.06499
   R12        2.06837  -0.00133   0.00000  -0.00386  -0.00386   2.06451
   R13        2.06843  -0.00118   0.00000  -0.00344  -0.00344   2.06499
    A1        1.92475   0.00383   0.00000   0.02731   0.02724   1.95199
    A2        1.93647  -0.00006   0.00000  -0.00217  -0.00223   1.93425
    A3        1.93647  -0.00006   0.00000  -0.00217  -0.00223   1.93425
    A4        1.88701  -0.00158   0.00000  -0.00633  -0.00640   1.88061
    A5        1.88701  -0.00158   0.00000  -0.00633  -0.00640   1.88061
    A6        1.89053  -0.00071   0.00000  -0.01118  -0.01121   1.87932
    A7        1.94337   0.00544   0.00000   0.02926   0.02923   1.97259
    A8        1.90611  -0.00049   0.00000   0.00821   0.00835   1.91446
    A9        1.90611  -0.00049   0.00000   0.00821   0.00835   1.91446
   A10        1.91784  -0.00253   0.00000  -0.01708  -0.01742   1.90042
   A11        1.91784  -0.00253   0.00000  -0.01708  -0.01742   1.90042
   A12        1.87110   0.00042   0.00000  -0.01287  -0.01320   1.85789
   A13        1.94337   0.00544   0.00000   0.02926   0.02923   1.97259
   A14        1.91784  -0.00253   0.00000  -0.01708  -0.01742   1.90042
   A15        1.91784  -0.00253   0.00000  -0.01708  -0.01742   1.90042
   A16        1.90611  -0.00049   0.00000   0.00821   0.00835   1.91446
   A17        1.90611  -0.00049   0.00000   0.00821   0.00835   1.91446
   A18        1.87110   0.00042   0.00000  -0.01287  -0.01320   1.85789
   A19        1.93647  -0.00006   0.00000  -0.00217  -0.00223   1.93425
   A20        1.92475   0.00383   0.00000   0.02731   0.02724   1.95199
   A21        1.93647  -0.00006   0.00000  -0.00217  -0.00223   1.93425
   A22        1.88701  -0.00158   0.00000  -0.00633  -0.00640   1.88061
   A23        1.89053  -0.00071   0.00000  -0.01118  -0.01121   1.87932
   A24        1.88701  -0.00158   0.00000  -0.00633  -0.00640   1.88061
    D1        3.14159   0.00000   0.00000   0.00000   0.00000   3.14159
    D2        1.02055  -0.00003   0.00000  -0.00307  -0.00317   1.01738
    D3       -1.02055   0.00003   0.00000   0.00307   0.00317  -1.01738
    D4        1.05125  -0.00049   0.00000  -0.00851  -0.00852   1.04273
    D5       -1.06979  -0.00052   0.00000  -0.01158  -0.01169  -1.08148
    D6       -3.11089  -0.00046   0.00000  -0.00544  -0.00535  -3.11624
    D7       -1.05125   0.00049   0.00000   0.00851   0.00852  -1.04273
    D8        3.11089   0.00046   0.00000   0.00544   0.00535   3.11624
    D9        1.06979   0.00052   0.00000   0.01158   0.01169   1.08148
   D10        3.14159   0.00000   0.00000  -0.00000   0.00000   3.14159
   D11        1.02739  -0.00126   0.00000  -0.01808  -0.01789   1.00950
   D12       -1.02739   0.00126   0.00000   0.01808   0.01789  -1.00950
   D13       -1.02739   0.00126   0.00000   0.01808   0.01789  -1.00950
   D14        3.14159  -0.00000   0.00000  -0.00000   0.00000   3.14159
   D15        1.08681   0.00251   0.00000   0.03616   0.03579   1.12260
   D16        1.02739  -0.00126   0.00000  -0.01808  -0.01789   1.00950
   D17       -1.08681  -0.00251   0.00000  -0.03616  -0.03579  -1.12260
   D18        3.14159   0.00000   0.00000  -0.00000   0.00000   3.14159
   D19       -1.05125   0.00049   0.00000   0.00851   0.00852  -1.04273
   D20        3.14159  -0.00000   0.00000  -0.00000   0.00000  -3.14159
   D21        1.05125  -0.00049   0.00000  -0.00851  -0.00852   1.04273
   D22        1.06979   0.00052   0.00000   0.01158   0.01169   1.08148
   D23       -1.02055   0.00003   0.00000   0.00307   0.00317  -1.01738
   D24       -3.11089  -0.00046   0.00000  -0.00544  -0.00535  -3.11624
   D25        3.11089   0.00046   0.00000   0.00544   0.00535   3.11624
   D26        1.02055  -0.00003   0.00000  -0.00307  -0.00317   1.01738
   D27       -1.06979  -0.00052   0.00000  -0.01158  -0.01169  -1.08148
         Item               Value     Threshold  Converged?
 Maximum Force            0.006216     0.000450     NO 
 RMS     Force            0.001926     0.000300     NO 
 Maximum Displacement     0.070592     0.001800     NO 
 RMS     Displacement     0.021845     0.001200     NO 
 Predicted change in Energy=-6.729389D-04
 GradGradGradGradGradGradGradGradGradGradGradGradGradGradGradGradGradGrad

                          Input orientation:                          
 ---------------------------------------------------------------------
 Center     Atomic      Atomic             Coordinates (Angstroms)
 Number     Number       Type             X           Y           Z
 ---------------------------------------------------------------------
      1          6           0        0.890771   -0.028050    0.070843
      2          6           0        2.421159   -0.053505    0.050586
      3          6           0        2.988751   -1.163644   -0.832986
      4          6           0        4.519139   -1.189098   -0.853243
      5          1           0        0.505974    0.771966    0.707586
      6          1           0        0.491447   -0.973563    0.445863
      7          1           0        0.491450    0.125252   -0.934709
      8          1           0        2.801513   -0.181951    1.069258
      9          1           0        2.801516    0.910370   -0.303154
     10          1           0        2.608397   -1.035198   -1.851658
     11          1           0        2.608394   -2.127519   -0.479246
     12          1           0        4.918463   -0.243586   -1.228263
     13          1           0        4.903936   -1.989115   -1.489986
     14          1           0        4.918460   -1.342401    0.152309
 ---------------------------------------------------------------------
                    Distance matrix (angstroms):
                    1          2          3          4          5
     1  C    0.000000
     2  C    1.530734   0.000000
     3  C    2.551079   1.528159   0.000000
     4  C    3.920080   2.551079   1.530734   0.000000
     5  H    1.092491   2.186546   3.504872   4.731538   0.000000
     6  H    1.092746   2.174060   2.812137   4.237503   1.765101
     7  H    1.092746   2.174060   2.812137   4.237503   1.765101
     8  H    2.161355   1.094924   2.148793   2.767778   2.512024
     9  H    2.161355   1.094924   2.148793   2.767778   2.512024
    10  H    2.767778   2.148793   1.094924   2.161355   3.773029
    11  H    2.767778   2.148793   1.094924   2.161355   3.773029
    12  H    4.237503   2.812137   2.174060   1.092746   4.924318
    13  H    4.731538   3.504872   2.186546   1.092491   5.638701
    14  H    4.237503   2.812137   2.174060   1.092746   4.924318
                    6          7          8          9         10
     6  H    0.000000
     7  H    1.764476   0.000000
     8  H    2.520253   3.073540   0.000000
     9  H    3.073540   2.520253   1.754047   0.000000
    10  H    3.124720   2.582422   3.049110   2.494072   0.000000
    11  H    2.582422   3.124720   2.494072   3.049110   1.754047
    12  H    4.788949   4.452040   3.124720   2.582422   2.520253
    13  H    4.924318   4.924318   3.773029   3.773029   2.512024
    14  H    4.452040   4.788949   2.582422   3.124720   3.073540
                   11         12         13         14
    11  H    0.000000
    12  H    3.073540   0.000000
    13  H    2.512024   1.765101   0.000000
    14  H    2.520253   1.764476   1.765101   0.000000
 Stoichiometry    C4H10
 Framework group  C2H[SGH(C4H2),X(H8)]
 Deg. of freedom    11
 Full point group                 C2H     NOp   4
 Largest Abelian subgroup         C2H     NOp   4
 Largest concise Abelian subgroup C2H     NOp   4
                         Standard orientation:                         
 ---------------------------------------------------------------------
 Center     Atomic      Atomic             Coordinates (Angstroms)
 Number     Number       Type             X           Y           Z
 ---------------------------------------------------------------------
      1          6           0       -0.703229    1.829543    0.000000
      2          6           0       -0.703229    0.298809    0.000000
      3          6           0        0.703229   -0.298809    0.000000
      4          6           0        0.703229   -1.829543    0.000000
      5          1           0       -1.717301    2.235982    0.000000
      6          1           0       -0.188604    2.218015   -0.882238
      7          1           0       -0.188604    2.218015    0.882238
      8          1           0       -1.245063   -0.070115   -0.877023
      9          1           0       -1.245063   -0.070115    0.877023
     10          1           0        1.245063    0.070115    0.877023
     11          1           0        1.245063    0.070115   -0.877023
     12          1           0        0.188604   -2.218015    0.882238
     13          1           0        1.717301   -2.235982    0.000000
     14          1           0        0.188604   -2.218015   -0.882238
 ---------------------------------------------------------------------
 Rotational constants (GHZ):          23.5312965           3.6232933           3.4036733
 Standard basis: 6-311++G(d,p) (5D, 7F)
 There are    54 symmetry adapted cartesian basis functions of AG  symmetry.
 There are    27 symmetry adapted cartesian basis functions of BG  symmetry.
 There are    27 symmetry adapted cartesian basis functions of AU  symmetry.
 There are    54 symmetry adapted cartesian basis functions of BU  symmetry.
 There are    52 symmetry adapted basis functions of AG  symmetry.
 There are    27 symmetry adapted basis functions of BG  symmetry.
 There are    27 symmetry adapted basis functions of AU  symmetry.
 There are    52 symmetry adapted basis functions of BU  symmetry.
   158 basis functions,   234 primitive gaussians,   162 cartesian basis functions
    17 alpha electrons       17 beta electrons
       nuclear repulsion energy       130.5594001559 Hartrees.
 NAtoms=   14 NActive=   14 NUniq=    5 SFac= 4.00D+00 NAtFMM=   60 NAOKFM=F Big=F
 Integral buffers will be    131072 words long.
 Raffenetti 2 integral format.
 Two-electron integral symmetry is turned on.
 One-electron integrals computed using PRISM.
 NBasis=   158 RedAO= T EigKep=  2.42D-05  NBF=    52    27    27    52
 NBsUse=   158 1.00D-06 EigRej= -1.00D+00 NBFU=    52    27    27    52
 Initial guess from the checkpoint file:  "CCCC.chk"
 B after Tr=     0.000000   -0.000000    0.000000
         Rot=    0.999981    0.000000   -0.000000    0.006154 Ang=   0.71 deg.
 Initial guess orbital symmetries:
       Occupied  (AG) (BU) (AG) (BU) (AG) (BU) (AG) (BU) (AU) (AG)
                 (BU) (BG) (BU) (AU) (AG) (BG) (AG)
       Virtual   (AG) (BU) (BU) (AU) (AG) (AG) (BG) (BG) (BU) (AG)
                 (AU) (BU) (AU) (BU) (AG) (BU) (AG) (BU) (AU) (AG)
                 (BG) (AG) (AG) (BG) (BU) (BU) (AU) (BG) (BU) (AG)
                 (AU) (BG) (BU) (AG) (BU) (AG) (BU) (AG) (BU) (AG)
                 (BG) (AU) (BU) (AU) (AG) (BU) (AG) (BG) (BU) (AU)
                 (AG) (AU) (BU) (BG) (AG) (BU) (BG) (AG) (AG) (BU)
                 (BU) (AG) (BU) (AG) (AU) (BU) (BU) (AG) (BG) (BG)
                 (AU) (BU) (BG) (AU) (AG) (BG) (AU) (AG) (BG) (BU)
                 (AU) (AG) (BU) (AG) (AU) (BU) (BG) (AU) (BU) (AG)
                 (BG) (BU) (AG) (AU) (BU) (AG) (AG) (BG) (BU) (BU)
                 (AG) (AU) (AG) (BG) (BU) (AG) (AU) (BU) (BG) (BU)
                 (AG) (AU) (BG) (AG) (BU) (BU) (BG) (AG) (AU) (BG)
                 (AU) (BU) (AG) (BU) (AG) (AG) (BU) (AG) (BG) (AU)
                 (BU) (AG) (AU) (BG) (BU) (AG) (BU) (BU) (AG) (AG)
                 (BU)
 ExpMin= 3.60D-02 ExpMax= 4.56D+03 ExpMxC= 6.82D+02 IAcc=3 IRadAn=         5 AccDes= 0.00D+00
 Harris functional with IExCor= 1009 and IRadAn=       5 diagonalized for initial guess.
 HarFok:  IExCor= 1009 AccDes= 0.00D+00 IRadAn=         5 IDoV= 1 UseB2=F ITyADJ=14
 ICtDFT=  3500011 ScaDFX=  1.000000  1.000000  1.000000  1.000000
 FoFCou: FMM=F IPFlag=           0 FMFlag=      100000 FMFlg1=           0
         NFxFlg=           0 DoJE=T BraDBF=F KetDBF=T FulRan=T
         wScrn=  0.000000 ICntrl=       500 IOpCl=  0 I1Cent=   200000004 NGrid=           0
         NMat0=    1 NMatS0=      1 NMatT0=    0 NMatD0=    1 NMtDS0=    0 NMtDT0=    0
 Petite list used in FoFCou.
 Keep R1 ints in memory in symmetry-blocked form, NReq=98877001.
 Requested convergence on RMS density matrix=1.00D-08 within 128 cycles.
 Requested convergence on MAX density matrix=1.00D-06.
 Requested convergence on             energy=1.00D-06.
 No special actions if energy rises.
 SCF Done:  E(RM062X) =  -158.404093368     A.U. after    8 cycles
            NFock=  8  Conv=0.97D-08     -V/T= 2.0050
 Calling FoFJK, ICntrl=      2127 FMM=F ISym2X=1 I1Cent= 0 IOpClX= 0 NMat=1 NMatS=1 NMatT=0.
 ***** Axes restored to original set *****
 -------------------------------------------------------------------
 Center     Atomic                   Forces (Hartrees/Bohr)
 Number     Number              X              Y              Z
 -------------------------------------------------------------------
      1        6           0.001851448   -0.000180171   -0.000143397
      2        6          -0.000646487    0.000209507    0.000166748
      3        6           0.000646487   -0.000209507   -0.000166748
      4        6          -0.001851448    0.000180171    0.000143397
      5        1           0.000775622   -0.000232649   -0.000185167
      6        1           0.000008392   -0.000335179   -0.000024403
      7        1           0.000008393   -0.000098989   -0.000321157
      8        1           0.000021660    0.000343360    0.000440562
      9        1           0.000021660    0.000506372    0.000235751
     10        1          -0.000021660   -0.000343360   -0.000440562
     11        1          -0.000021660   -0.000506372   -0.000235751
     12        1          -0.000008392    0.000335179    0.000024403
     13        1          -0.000775622    0.000232649    0.000185167
     14        1          -0.000008393    0.000098989    0.000321157
 -------------------------------------------------------------------
 Cartesian Forces:  Max     0.001851448 RMS     0.000512300

 GradGradGradGradGradGradGradGradGradGradGradGradGradGradGradGradGradGrad
 Berny optimization.
 Using GEDIIS/GDIIS optimizer.
 FormGI is forming the generalized inverse of G from B-inverse, IUseBI=4.
 Internal  Forces:  Max     0.002664869 RMS     0.000661747
 Search for a local minimum.
 Step number   2 out of a maximum of   74
 All quantities printed in internal units (Hartrees-Bohrs-Radians)
 Mixed Optimization -- En-DIIS/RFO-DIIS
 Update second derivatives using D2CorX and points    1    2
 DE= -4.97D-04 DEPred=-6.73D-04 R= 7.38D-01
 TightC=F SS=  1.41D+00  RLast= 1.06D-01 DXNew= 5.0454D-01 3.1800D-01
 Trust test= 7.38D-01 RLast= 1.06D-01 DXMaxT set to 3.18D-01
 ITU=  1  0
 Use linear search instead of GDIIS.
     Eigenvalues ---    0.00406   0.00502   0.00502   0.03566   0.03566
     Eigenvalues ---    0.04809   0.04888   0.05525   0.05525   0.05604
     Eigenvalues ---    0.05644   0.08409   0.08444   0.12273   0.12273
     Eigenvalues ---    0.16000   0.16000   0.16000   0.16000   0.16000
     Eigenvalues ---    0.16347   0.21912   0.23619   0.29684   0.30371
     Eigenvalues ---    0.33509   0.34057   0.34108   0.34108   0.34108
     Eigenvalues ---    0.34207   0.34291   0.34291   0.34291   0.34294
     Eigenvalues ---    0.36306
 RFO step:  Lambda=-1.81575129D-05 EMin= 4.05963141D-03
 Quartic linear search produced a step of -0.20395.
 Iteration  1 RMS(Cart)=  0.00575176 RMS(Int)=  0.00002677
 Iteration  2 RMS(Cart)=  0.00000639 RMS(Int)=  0.00002630
 Iteration  3 RMS(Cart)=  0.00000000 RMS(Int)=  0.00002630
 ClnCor:  largest displacement from symmetrization is 1.60D-08 for atom    12.
 Variable       Old X    -DE/DX   Delta X   Delta X   Delta X     New X
                                 (Linear)    (Quad)   (Total)
    R1        2.89267  -0.00266  -0.00416  -0.00256  -0.00672   2.88595
    R2        2.06451  -0.00055   0.00079  -0.00212  -0.00133   2.06318
    R3        2.06499   0.00028   0.00070  -0.00010   0.00060   2.06559
    R4        2.06499   0.00028   0.00070  -0.00010   0.00060   2.06559
    R5        2.88780  -0.00051  -0.00036  -0.00098  -0.00134   2.88646
    R6        2.06911   0.00038   0.00048   0.00036   0.00085   2.06996
    R7        2.06911   0.00038   0.00048   0.00036   0.00085   2.06996
    R8        2.89267  -0.00266  -0.00416  -0.00256  -0.00672   2.88595
    R9        2.06911   0.00038   0.00048   0.00036   0.00085   2.06996
   R10        2.06911   0.00038   0.00048   0.00036   0.00085   2.06996
   R11        2.06499   0.00028   0.00070  -0.00010   0.00060   2.06559
   R12        2.06451  -0.00055   0.00079  -0.00212  -0.00133   2.06318
   R13        2.06499   0.00028   0.00070  -0.00010   0.00060   2.06559
    A1        1.95199  -0.00082  -0.00556   0.00170  -0.00385   1.94815
    A2        1.93425  -0.00001   0.00045  -0.00046   0.00000   1.93425
    A3        1.93425  -0.00001   0.00045  -0.00046   0.00000   1.93425
    A4        1.88061   0.00043   0.00130   0.00065   0.00197   1.88258
    A5        1.88061   0.00043   0.00130   0.00065   0.00197   1.88258
    A6        1.87932   0.00003   0.00229  -0.00216   0.00014   1.87946
    A7        1.97259  -0.00179  -0.00596  -0.00035  -0.00630   1.96629
    A8        1.91446   0.00039  -0.00170   0.00197   0.00024   1.91470
    A9        1.91446   0.00039  -0.00170   0.00197   0.00024   1.91470
   A10        1.90042   0.00076   0.00355   0.00005   0.00367   1.90408
   A11        1.90042   0.00076   0.00355   0.00005   0.00367   1.90408
   A12        1.85789  -0.00042   0.00269  -0.00394  -0.00119   1.85670
   A13        1.97259  -0.00179  -0.00596  -0.00035  -0.00630   1.96629
   A14        1.90042   0.00076   0.00355   0.00005   0.00367   1.90408
   A15        1.90042   0.00076   0.00355   0.00005   0.00367   1.90408
   A16        1.91446   0.00039  -0.00170   0.00197   0.00024   1.91470
   A17        1.91446   0.00039  -0.00170   0.00197   0.00024   1.91470
   A18        1.85789  -0.00042   0.00269  -0.00394  -0.00119   1.85670
   A19        1.93425  -0.00001   0.00045  -0.00046   0.00000   1.93425
   A20        1.95199  -0.00082  -0.00556   0.00170  -0.00385   1.94815
   A21        1.93425  -0.00001   0.00045  -0.00046   0.00000   1.93425
   A22        1.88061   0.00043   0.00130   0.00065   0.00197   1.88258
   A23        1.87932   0.00003   0.00229  -0.00216   0.00014   1.87946
   A24        1.88061   0.00043   0.00130   0.00065   0.00197   1.88258
    D1        3.14159   0.00000   0.00000  -0.00000   0.00000   3.14159
    D2        1.01738  -0.00003   0.00065  -0.00125  -0.00058   1.01680
    D3       -1.01738   0.00003  -0.00065   0.00125   0.00058  -1.01680
    D4        1.04273   0.00001   0.00174  -0.00165   0.00009   1.04282
    D5       -1.08148  -0.00002   0.00238  -0.00290  -0.00049  -1.08197
    D6       -3.11624   0.00004   0.00109  -0.00040   0.00067  -3.11557
    D7       -1.04273  -0.00001  -0.00174   0.00165  -0.00009  -1.04282
    D8        3.11624  -0.00004  -0.00109   0.00040  -0.00067   3.11557
    D9        1.08148   0.00002  -0.00238   0.00290   0.00049   1.08197
   D10        3.14159  -0.00000   0.00000  -0.00000   0.00000   3.14159
   D11        1.00950   0.00016   0.00365  -0.00232   0.00130   1.01080
   D12       -1.00950  -0.00016  -0.00365   0.00232  -0.00130  -1.01080
   D13       -1.00950  -0.00016  -0.00365   0.00232  -0.00130  -1.01080
   D14        3.14159   0.00000   0.00000  -0.00000   0.00000   3.14159
   D15        1.12260  -0.00032  -0.00730   0.00463  -0.00260   1.12000
   D16        1.00950   0.00016   0.00365  -0.00232   0.00130   1.01080
   D17       -1.12260   0.00032   0.00730  -0.00463   0.00260  -1.12000
   D18        3.14159  -0.00000  -0.00000  -0.00000   0.00000   3.14159
   D19       -1.04273  -0.00001  -0.00174   0.00165  -0.00009  -1.04282
   D20        3.14159  -0.00000   0.00000  -0.00000   0.00000   3.14159
   D21        1.04273   0.00001   0.00174  -0.00165   0.00009   1.04282
   D22        1.08148   0.00002  -0.00238   0.00290   0.00049   1.08197
   D23       -1.01738   0.00003  -0.00065   0.00125   0.00058  -1.01680
   D24       -3.11624   0.00004   0.00109  -0.00040   0.00067  -3.11557
   D25        3.11624  -0.00004  -0.00109   0.00040  -0.00067   3.11557
   D26        1.01738  -0.00003   0.00065  -0.00125  -0.00058   1.01680
   D27       -1.08148  -0.00002   0.00238  -0.00290  -0.00049  -1.08197
         Item               Value     Threshold  Converged?
 Maximum Force            0.002665     0.000450     NO 
 RMS     Force            0.000662     0.000300     NO 
 Maximum Displacement     0.015370     0.001800     NO 
 RMS     Displacement     0.005756     0.001200     NO 
 Predicted change in Energy=-4.341618D-05
 GradGradGradGradGradGradGradGradGradGradGradGradGradGradGradGradGradGrad

                          Input orientation:                          
 ---------------------------------------------------------------------
 Center     Atomic      Atomic             Coordinates (Angstroms)
 Number     Number       Type             X           Y           Z
 ---------------------------------------------------------------------
      1          6           0        0.897161   -0.030351    0.069012
      2          6           0        2.424069   -0.052898    0.051069
      3          6           0        2.985841   -1.164251   -0.833469
      4          6           0        4.512749   -1.186798   -0.851412
      5          1           0        0.514108    0.769589    0.705694
      6          1           0        0.498927   -0.976849    0.443634
      7          1           0        0.498930    0.122343   -0.937411
      8          1           0        2.803561   -0.180085    1.070703
      9          1           0        2.803564    0.912197   -0.301660
     10          1           0        2.606349   -1.037064   -1.853103
     11          1           0        2.606346   -2.129345   -0.480740
     12          1           0        4.910983   -0.240300   -1.226034
     13          1           0        4.895802   -1.986738   -1.488094
     14          1           0        4.910980   -1.339492    0.155011
 ---------------------------------------------------------------------
                    Distance matrix (angstroms):
                    1          2          3          4          5
     1  C    0.000000
     2  C    1.527179   0.000000
     3  C    2.542201   1.527449   0.000000
     4  C    3.906024   2.542201   1.527179   0.000000
     5  H    1.091786   2.180131   3.495458   4.716053   0.000000
     6  H    1.093065   2.171166   2.801938   4.222794   1.766055
     7  H    1.093065   2.171166   2.801938   4.222794   1.766055
     8  H    2.158741   1.095373   2.151204   2.762122   2.505336
     9  H    2.158741   1.095373   2.151204   2.762122   2.505336
    10  H    2.762122   2.151204   1.095373   2.158741   3.766816
    11  H    2.762122   2.151204   1.095373   2.158741   3.766816
    12  H    4.222794   2.801938   2.171166   1.093065   4.907541
    13  H    4.716053   3.495458   2.180131   1.091786   5.622214
    14  H    4.222794   2.801938   2.171166   1.093065   4.907541
                    6          7          8          9         10
     6  H    0.000000
     7  H    1.765080   0.000000
     8  H    2.517814   3.071695   0.000000
     9  H    3.071695   2.517814   1.753983   0.000000
    10  H    3.117667   2.573700   3.053186   2.499097   0.000000
    11  H    2.573700   3.117667   2.499097   3.053186   1.753983
    12  H    4.774571   4.436330   3.117667   2.573700   2.517814
    13  H    4.907541   4.907541   3.766816   3.766816   2.505336
    14  H    4.436330   4.774571   2.573700   3.117667   3.071695
                   11         12         13         14
    11  H    0.000000
    12  H    3.071695   0.000000
    13  H    2.505336   1.766055   0.000000
    14  H    2.517814   1.765080   1.766055   0.000000
 Stoichiometry    C4H10
 Framework group  C2H[SGH(C4H2),X(H8)]
 Deg. of freedom    11
 Full point group                 C2H     NOp   4
 Largest Abelian subgroup         C2H     NOp   4
 Largest concise Abelian subgroup C2H     NOp   4
                         Standard orientation:                         
 ---------------------------------------------------------------------
 Center     Atomic      Atomic             Coordinates (Angstroms)
 Number     Number       Type             X           Y           Z
 ---------------------------------------------------------------------
      1          6           0       -0.704770    1.821416    0.000000
      2          6           0       -0.704770    0.294237    0.000000
      3          6           0        0.704770   -0.294237    0.000000
      4          6           0        0.704770   -1.821416    0.000000
      5          1           0       -1.719743    2.223692    0.000000
      6          1           0       -0.190074    2.210006   -0.882540
      7          1           0       -0.190074    2.210006    0.882540
      8          1           0       -1.247290   -0.075087   -0.876992
      9          1           0       -1.247290   -0.075087    0.876992
     10          1           0        1.247290    0.075087    0.876992
     11          1           0        1.247290    0.075087   -0.876992
     12          1           0        0.190074   -2.210006    0.882540
     13          1           0        1.719743   -2.223692    0.000000
     14          1           0        0.190074   -2.210006   -0.882540
 ---------------------------------------------------------------------
 Rotational constants (GHZ):          23.4422546           3.6483976           3.4240131
 Standard basis: 6-311++G(d,p) (5D, 7F)
 There are    54 symmetry adapted cartesian basis functions of AG  symmetry.
 There are    27 symmetry adapted cartesian basis functions of BG  symmetry.
 There are    27 symmetry adapted cartesian basis functions of AU  symmetry.
 There are    54 symmetry adapted cartesian basis functions of BU  symmetry.
 There are    52 symmetry adapted basis functions of AG  symmetry.
 There are    27 symmetry adapted basis functions of BG  symmetry.
 There are    27 symmetry adapted basis functions of AU  symmetry.
 There are    52 symmetry adapted basis functions of BU  symmetry.
   158 basis functions,   234 primitive gaussians,   162 cartesian basis functions
    17 alpha electrons       17 beta electrons
       nuclear repulsion energy       130.7605721859 Hartrees.
 NAtoms=   14 NActive=   14 NUniq=    5 SFac= 4.00D+00 NAtFMM=   60 NAOKFM=F Big=F
 Integral buffers will be    131072 words long.
 Raffenetti 2 integral format.
 Two-electron integral symmetry is turned on.
 One-electron integrals computed using PRISM.
 NBasis=   158 RedAO= T EigKep=  2.37D-05  NBF=    52    27    27    52
 NBsUse=   158 1.00D-06 EigRej= -1.00D+00 NBFU=    52    27    27    52
 Initial guess from the checkpoint file:  "CCCC.chk"
 B after Tr=    -0.000000    0.000000   -0.000000
         Rot=    0.999999    0.000000   -0.000000   -0.001281 Ang=  -0.15 deg.
 Initial guess orbital symmetries:
       Occupied  (AG) (BU) (AG) (BU) (AG) (BU) (AG) (BU) (AU) (AG)
                 (BU) (BG) (BU) (AU) (AG) (BG) (AG)
       Virtual   (AG) (BU) (BU) (AU) (AG) (AG) (BG) (BG) (BU) (AG)
                 (AU) (BU) (AU) (BU) (AG) (BU) (AG) (BU) (AU) (AG)
                 (BG) (AG) (AG) (BG) (BU) (BU) (AU) (BG) (BU) (AG)
                 (AU) (BG) (BU) (AG) (BU) (AG) (BU) (AG) (BU) (AG)
                 (BG) (AU) (BU) (AU) (AG) (BU) (BG) (AG) (BU) (AU)
                 (AU) (AG) (BU) (BG) (AG) (BU) (BG) (AG) (AG) (BU)
                 (BU) (AG) (BU) (AG) (AU) (BU) (BU) (AG) (BG) (BG)
                 (AU) (BU) (AG) (BG) (AU) (BG) (AU) (AG) (BU) (BG)
                 (AU) (AG) (BU) (AG) (AU) (BU) (BG) (AU) (AG) (BG)
                 (BU) (BU) (AU) (AG) (BU) (AG) (AG) (BG) (BU) (BU)
                 (AG) (AU) (AG) (BG) (BU) (AG) (BU) (AU) (BG) (AG)
                 (AU) (BU) (BG) (AG) (BU) (BG) (BU) (AG) (AU) (BG)
                 (AU) (BU) (AG) (BU) (AG) (AG) (BU) (AG) (AU) (BG)
                 (BU) (AG) (AU) (BG) (BU) (AG) (BU) (BU) (AG) (AG)
                 (BU)
 Keep R1 ints in memory in symmetry-blocked form, NReq=98877001.
 Requested convergence on RMS density matrix=1.00D-08 within 128 cycles.
 Requested convergence on MAX density matrix=1.00D-06.
 Requested convergence on             energy=1.00D-06.
 No special actions if energy rises.
 SCF Done:  E(RM062X) =  -158.404139566     A.U. after    8 cycles
            NFock=  8  Conv=0.27D-08     -V/T= 2.0049
 Calling FoFJK, ICntrl=      2127 FMM=F ISym2X=1 I1Cent= 0 IOpClX= 0 NMat=1 NMatS=1 NMatT=0.
 ***** Axes restored to original set *****
 -------------------------------------------------------------------
 Center     Atomic                   Forces (Hartrees/Bohr)
 Number     Number              X              Y              Z
 -------------------------------------------------------------------
      1        6           0.000348141    0.000123583    0.000098362
      2        6          -0.000496298   -0.000131200   -0.000104425
      3        6           0.000496298    0.000131200    0.000104425
      4        6          -0.000348141   -0.000123583   -0.000098362
      5        1          -0.000003412   -0.000022349   -0.000017788
      6        1          -0.000029517   -0.000066743   -0.000030861
      7        1          -0.000029517   -0.000045050   -0.000058117
      8        1           0.000113081    0.000059022    0.000049437
      9        1           0.000113081    0.000061419    0.000046425
     10        1          -0.000113081   -0.000059022   -0.000049437
     11        1          -0.000113081   -0.000061419   -0.000046425
     12        1           0.000029517    0.000066743    0.000030861
     13        1           0.000003412    0.000022349    0.000017788
     14        1           0.000029517    0.000045050    0.000058117
 -------------------------------------------------------------------
 Cartesian Forces:  Max     0.000496298 RMS     0.000149824

 GradGradGradGradGradGradGradGradGradGradGradGradGradGradGradGradGradGrad
 Berny optimization.
 Using GEDIIS/GDIIS optimizer.
 FormGI is forming the generalized inverse of G from B-inverse, IUseBI=4.
 Internal  Forces:  Max     0.000284531 RMS     0.000063909
 Search for a local minimum.
 Step number   3 out of a maximum of   74
 All quantities printed in internal units (Hartrees-Bohrs-Radians)
 Mixed Optimization -- En-DIIS/RFO-DIIS
 Swapping is turned off.
 Update second derivatives using D2CorX and points    1    2    3
 DE= -4.62D-05 DEPred=-4.34D-05 R= 1.06D+00
 TightC=F SS=  1.41D+00  RLast= 1.75D-02 DXNew= 5.3481D-01 5.2458D-02
 Trust test= 1.06D+00 RLast= 1.75D-02 DXMaxT set to 3.18D-01
 ITU=  1  1  0
     Eigenvalues ---    0.00406   0.00502   0.00502   0.03594   0.03594
     Eigenvalues ---    0.04764   0.04893   0.05548   0.05548   0.05581
     Eigenvalues ---    0.05647   0.08389   0.08447   0.12233   0.12233
     Eigenvalues ---    0.15998   0.16000   0.16000   0.16000   0.16000
     Eigenvalues ---    0.16460   0.21900   0.23865   0.29691   0.30371
     Eigenvalues ---    0.32230   0.33978   0.34108   0.34108   0.34108
     Eigenvalues ---    0.34186   0.34291   0.34291   0.34291   0.34293
     Eigenvalues ---    0.34294
 En-DIIS/RFO-DIIS/Sim-DIIS IScMMF=       -3 using points:     3    2
 RFO step:  Lambda=-1.58862403D-06.
 DidBck=F Rises=F RFO-DIIS coefs:    1.01764   -0.01764
 Iteration  1 RMS(Cart)=  0.00061243 RMS(Int)=  0.00000020
 Iteration  2 RMS(Cart)=  0.00000017 RMS(Int)=  0.00000011
 ClnCor:  largest displacement from symmetrization is 1.68D-08 for atom    10.
 Variable       Old X    -DE/DX   Delta X   Delta X   Delta X     New X
                                 (Linear)    (Quad)   (Total)
    R1        2.88595  -0.00028  -0.00012  -0.00089  -0.00101   2.88494
    R2        2.06318  -0.00003  -0.00002  -0.00010  -0.00012   2.06306
    R3        2.06559   0.00006   0.00001   0.00017   0.00018   2.06577
    R4        2.06559   0.00006   0.00001   0.00017   0.00018   2.06577
    R5        2.88646  -0.00003  -0.00002  -0.00011  -0.00013   2.88633
    R6        2.06996   0.00008   0.00001   0.00023   0.00025   2.07020
    R7        2.06996   0.00008   0.00001   0.00023   0.00025   2.07020
    R8        2.88595  -0.00028  -0.00012  -0.00089  -0.00101   2.88494
    R9        2.06996   0.00008   0.00001   0.00023   0.00025   2.07020
   R10        2.06996   0.00008   0.00001   0.00023   0.00025   2.07020
   R11        2.06559   0.00006   0.00001   0.00017   0.00018   2.06577
   R12        2.06318  -0.00003  -0.00002  -0.00010  -0.00012   2.06306
   R13        2.06559   0.00006   0.00001   0.00017   0.00018   2.06577
    A1        1.94815   0.00003  -0.00007   0.00054   0.00048   1.94862
    A2        1.93425  -0.00000   0.00000  -0.00012  -0.00012   1.93414
    A3        1.93425  -0.00000   0.00000  -0.00012  -0.00012   1.93414
    A4        1.88258   0.00000   0.00003   0.00017   0.00020   1.88278
    A5        1.88258   0.00000   0.00003   0.00017   0.00020   1.88278
    A6        1.87946  -0.00004   0.00000  -0.00067  -0.00067   1.87879
    A7        1.96629  -0.00006  -0.00011   0.00006  -0.00005   1.96624
    A8        1.91470   0.00006   0.00000   0.00067   0.00067   1.91537
    A9        1.91470   0.00006   0.00000   0.00067   0.00067   1.91537
   A10        1.90408   0.00000   0.00006  -0.00018  -0.00011   1.90397
   A11        1.90408   0.00000   0.00006  -0.00018  -0.00011   1.90397
   A12        1.85670  -0.00006  -0.00002  -0.00111  -0.00114   1.85556
   A13        1.96629  -0.00006  -0.00011   0.00006  -0.00005   1.96624
   A14        1.90408   0.00000   0.00006  -0.00018  -0.00011   1.90397
   A15        1.90408   0.00000   0.00006  -0.00018  -0.00011   1.90397
   A16        1.91470   0.00006   0.00000   0.00067   0.00067   1.91537
   A17        1.91470   0.00006   0.00000   0.00067   0.00067   1.91537
   A18        1.85670  -0.00006  -0.00002  -0.00111  -0.00114   1.85556
   A19        1.93425  -0.00000   0.00000  -0.00012  -0.00012   1.93414
   A20        1.94815   0.00003  -0.00007   0.00054   0.00048   1.94862
   A21        1.93425  -0.00000   0.00000  -0.00012  -0.00012   1.93414
   A22        1.88258   0.00000   0.00003   0.00017   0.00020   1.88278
   A23        1.87946  -0.00004   0.00000  -0.00067  -0.00067   1.87879
   A24        1.88258   0.00000   0.00003   0.00017   0.00020   1.88278
    D1        3.14159  -0.00000   0.00000   0.00000   0.00000   3.14159
    D2        1.01680  -0.00000  -0.00001  -0.00029  -0.00030   1.01650
    D3       -1.01680   0.00000   0.00001   0.00029   0.00030  -1.01650
    D4        1.04282  -0.00002   0.00000  -0.00050  -0.00050   1.04233
    D5       -1.08197  -0.00003  -0.00001  -0.00079  -0.00080  -1.08276
    D6       -3.11557  -0.00002   0.00001  -0.00021  -0.00020  -3.11577
    D7       -1.04282   0.00002  -0.00000   0.00050   0.00050  -1.04233
    D8        3.11557   0.00002  -0.00001   0.00021   0.00020   3.11577
    D9        1.08197   0.00003   0.00001   0.00079   0.00080   1.08276
   D10        3.14159   0.00000   0.00000   0.00000   0.00000   3.14159
   D11        1.01080  -0.00004   0.00002  -0.00076  -0.00074   1.01006
   D12       -1.01080   0.00004  -0.00002   0.00076   0.00074  -1.01006
   D13       -1.01080   0.00004  -0.00002   0.00076   0.00074  -1.01006
   D14        3.14159   0.00000   0.00000   0.00000   0.00000   3.14159
   D15        1.12000   0.00007  -0.00005   0.00153   0.00148   1.12148
   D16        1.01080  -0.00004   0.00002  -0.00076  -0.00074   1.01006
   D17       -1.12000  -0.00007   0.00005  -0.00153  -0.00148  -1.12148
   D18        3.14159   0.00000   0.00000   0.00000   0.00000   3.14159
   D19       -1.04282   0.00002  -0.00000   0.00050   0.00050  -1.04233
   D20        3.14159  -0.00000   0.00000   0.00000  -0.00000   3.14159
   D21        1.04282  -0.00002   0.00000  -0.00050  -0.00050   1.04233
   D22        1.08197   0.00003   0.00001   0.00079   0.00080   1.08276
   D23       -1.01680   0.00000   0.00001   0.00029   0.00030  -1.01650
   D24       -3.11557  -0.00002   0.00001  -0.00021  -0.00020  -3.11577
   D25        3.11557   0.00002  -0.00001   0.00021   0.00020   3.11577
   D26        1.01680  -0.00000  -0.00001  -0.00029  -0.00030   1.01650
   D27       -1.08197  -0.00003  -0.00001  -0.00079  -0.00080  -1.08276
         Item               Value     Threshold  Converged?
 Maximum Force            0.000285     0.000450     YES
 RMS     Force            0.000064     0.000300     YES
 Maximum Displacement     0.001499     0.001800     YES
 RMS     Displacement     0.000612     0.001200     YES
 Predicted change in Energy=-7.942594D-07
 Optimization completed.
    -- Stationary point found.
                           ----------------------------
                           !   Optimized Parameters   !
                           ! (Angstroms and Degrees)  !
 --------------------------                            --------------------------
 ! Name  Definition              Value          Derivative Info.                !
 --------------------------------------------------------------------------------
 ! R1    R(1,2)                  1.5272         -DE/DX =   -0.0003              !
 ! R2    R(1,5)                  1.0918         -DE/DX =    0.0                 !
 ! R3    R(1,6)                  1.0931         -DE/DX =    0.0001              !
 ! R4    R(1,7)                  1.0931         -DE/DX =    0.0001              !
 ! R5    R(2,3)                  1.5274         -DE/DX =    0.0                 !
 ! R6    R(2,8)                  1.0954         -DE/DX =    0.0001              !
 ! R7    R(2,9)                  1.0954         -DE/DX =    0.0001              !
 ! R8    R(3,4)                  1.5272         -DE/DX =   -0.0003              !
 ! R9    R(3,10)                 1.0954         -DE/DX =    0.0001              !
 ! R10   R(3,11)                 1.0954         -DE/DX =    0.0001              !
 ! R11   R(4,12)                 1.0931         -DE/DX =    0.0001              !
 ! R12   R(4,13)                 1.0918         -DE/DX =    0.0                 !
 ! R13   R(4,14)                 1.0931         -DE/DX =    0.0001              !
 ! A1    A(2,1,5)              111.6205         -DE/DX =    0.0                 !
 ! A2    A(2,1,6)              110.8244         -DE/DX =    0.0                 !
 ! A3    A(2,1,7)              110.8244         -DE/DX =    0.0                 !
 ! A4    A(5,1,6)              107.8639         -DE/DX =    0.0                 !
 ! A5    A(5,1,7)              107.8639         -DE/DX =    0.0                 !
 ! A6    A(6,1,7)              107.6852         -DE/DX =    0.0                 !
 ! A7    A(1,2,3)              112.6602         -DE/DX =   -0.0001              !
 ! A8    A(1,2,8)              109.7043         -DE/DX =    0.0001              !
 ! A9    A(1,2,9)              109.7043         -DE/DX =    0.0001              !
 ! A10   A(3,2,8)              109.096          -DE/DX =    0.0                 !
 ! A11   A(3,2,9)              109.096          -DE/DX =    0.0                 !
 ! A12   A(8,2,9)              106.3811         -DE/DX =   -0.0001              !
 ! A13   A(2,3,4)              112.6602         -DE/DX =   -0.0001              !
 ! A14   A(2,3,10)             109.096          -DE/DX =    0.0                 !
 ! A15   A(2,3,11)             109.096          -DE/DX =    0.0                 !
 ! A16   A(4,3,10)             109.7043         -DE/DX =    0.0001              !
 ! A17   A(4,3,11)             109.7043         -DE/DX =    0.0001              !
 ! A18   A(10,3,11)            106.3811         -DE/DX =   -0.0001              !
 ! A19   A(3,4,12)             110.8244         -DE/DX =    0.0                 !
 ! A20   A(3,4,13)             111.6205         -DE/DX =    0.0                 !
 ! A21   A(3,4,14)             110.8244         -DE/DX =    0.0                 !
 ! A22   A(12,4,13)            107.8639         -DE/DX =    0.0                 !
 ! A23   A(12,4,14)            107.6852         -DE/DX =    0.0                 !
 ! A24   A(13,4,14)            107.8639         -DE/DX =    0.0                 !
 ! D1    D(5,1,2,3)            180.0            -DE/DX =    0.0                 !
 ! D2    D(5,1,2,8)             58.2584         -DE/DX =    0.0                 !
 ! D3    D(5,1,2,9)            -58.2584         -DE/DX =    0.0                 !
 ! D4    D(6,1,2,3)             59.7493         -DE/DX =    0.0                 !
 ! D5    D(6,1,2,8)            -61.9922         -DE/DX =    0.0                 !
 ! D6    D(6,1,2,9)           -178.5091         -DE/DX =    0.0                 !
 ! D7    D(7,1,2,3)            -59.7493         -DE/DX =    0.0                 !
 ! D8    D(7,1,2,8)            178.5091         -DE/DX =    0.0                 !
 ! D9    D(7,1,2,9)             61.9922         -DE/DX =    0.0                 !
 ! D10   D(1,2,3,4)            180.0            -DE/DX =    0.0                 !
 ! D11   D(1,2,3,10)            57.9144         -DE/DX =    0.0                 !
 ! D12   D(1,2,3,11)           -57.9144         -DE/DX =    0.0                 !
 ! D13   D(8,2,3,4)            -57.9144         -DE/DX =    0.0                 !
 ! D14   D(8,2,3,10)           180.0            -DE/DX =    0.0                 !
 ! D15   D(8,2,3,11)            64.1711         -DE/DX =    0.0001              !
 ! D16   D(9,2,3,4)             57.9144         -DE/DX =    0.0                 !
 ! D17   D(9,2,3,10)           -64.1711         -DE/DX =   -0.0001              !
 ! D18   D(9,2,3,11)           180.0            -DE/DX =    0.0                 !
 ! D19   D(2,3,4,12)           -59.7493         -DE/DX =    0.0                 !
 ! D20   D(2,3,4,13)           180.0            -DE/DX =    0.0                 !
 ! D21   D(2,3,4,14)            59.7493         -DE/DX =    0.0                 !
 ! D22   D(10,3,4,12)           61.9922         -DE/DX =    0.0                 !
 ! D23   D(10,3,4,13)          -58.2584         -DE/DX =    0.0                 !
 ! D24   D(10,3,4,14)         -178.5091         -DE/DX =    0.0                 !
 ! D25   D(11,3,4,12)          178.5091         -DE/DX =    0.0                 !
 ! D26   D(11,3,4,13)           58.2584         -DE/DX =    0.0                 !
 ! D27   D(11,3,4,14)          -61.9922         -DE/DX =    0.0                 !
 --------------------------------------------------------------------------------
 GradGradGradGradGradGradGradGradGradGradGradGradGradGradGradGradGradGrad

                          Input orientation:                          
 ---------------------------------------------------------------------
 Center     Atomic      Atomic             Coordinates (Angstroms)
 Number     Number       Type             X           Y           Z
 ---------------------------------------------------------------------
      1          6           0        0.897161   -0.030351    0.069012
      2          6           0        2.424069   -0.052898    0.051069
      3          6           0        2.985841   -1.164251   -0.833469
      4          6           0        4.512749   -1.186798   -0.851412
      5          1           0        0.514108    0.769589    0.705694
      6          1           0        0.498927   -0.976849    0.443634
      7          1           0        0.498930    0.122343   -0.937411
      8          1           0        2.803561   -0.180085    1.070703
      9          1           0        2.803564    0.912197   -0.301660
     10          1           0        2.606349   -1.037064   -1.853103
     11          1           0        2.606346   -2.129345   -0.480740
     12          1           0        4.910983   -0.240300   -1.226034
     13          1           0        4.895802   -1.986738   -1.488094
     14          1           0        4.910980   -1.339492    0.155011
 ---------------------------------------------------------------------
                    Distance matrix (angstroms):
                    1          2          3          4          5
     1  C    0.000000
     2  C    1.527179   0.000000
     3  C    2.542201   1.527449   0.000000
     4  C    3.906024   2.542201   1.527179   0.000000
     5  H    1.091786   2.180131   3.495458   4.716053   0.000000
     6  H    1.093065   2.171166   2.801938   4.222794   1.766055
     7  H    1.093065   2.171166   2.801938   4.222794   1.766055
     8  H    2.158741   1.095373   2.151204   2.762122   2.505336
     9  H    2.158741   1.095373   2.151204   2.762122   2.505336
    10  H    2.762122   2.151204   1.095373   2.158741   3.766816
    11  H    2.762122   2.151204   1.095373   2.158741   3.766816
    12  H    4.222794   2.801938   2.171166   1.093065   4.907541
    13  H    4.716053   3.495458   2.180131   1.091786   5.622214
    14  H    4.222794   2.801938   2.171166   1.093065   4.907541
                    6          7          8          9         10
     6  H    0.000000
     7  H    1.765080   0.000000
     8  H    2.517814   3.071695   0.000000
     9  H    3.071695   2.517814   1.753983   0.000000
    10  H    3.117667   2.573700   3.053186   2.499097   0.000000
    11  H    2.573700   3.117667   2.499097   3.053186   1.753983
    12  H    4.774571   4.436330   3.117667   2.573700   2.517814
    13  H    4.907541   4.907541   3.766816   3.766816   2.505336
    14  H    4.436330   4.774571   2.573700   3.117667   3.071695
                   11         12         13         14
    11  H    0.000000
    12  H    3.071695   0.000000
    13  H    2.505336   1.766055   0.000000
    14  H    2.517814   1.765080   1.766055   0.000000
 Stoichiometry    C4H10
 Framework group  C2H[SGH(C4H2),X(H8)]
 Deg. of freedom    11
 Full point group                 C2H     NOp   4
 Largest Abelian subgroup         C2H     NOp   4
 Largest concise Abelian subgroup C2H     NOp   4
                         Standard orientation:                         
 ---------------------------------------------------------------------
 Center     Atomic      Atomic             Coordinates (Angstroms)
 Number     Number       Type             X           Y           Z
 ---------------------------------------------------------------------
      1          6           0       -0.704770    1.821416   -0.000000
      2          6           0       -0.704770    0.294237   -0.000000
      3          6           0        0.704770   -0.294237   -0.000000
      4          6           0        0.704770   -1.821416   -0.000000
      5          1           0       -1.719743    2.223692   -0.000000
      6          1           0       -0.190074    2.210006   -0.882540
      7          1           0       -0.190074    2.210006    0.882540
      8          1           0       -1.247290   -0.075087   -0.876992
      9          1           0       -1.247290   -0.075087    0.876992
     10          1           0        1.247290    0.075087    0.876992
     11          1           0        1.247290    0.075087   -0.876992
     12          1           0        0.190074   -2.210006    0.882540
     13          1           0        1.719743   -2.223692   -0.000000
     14          1           0        0.190074   -2.210006   -0.882540
 ---------------------------------------------------------------------
 Rotational constants (GHZ):          23.4422546           3.6483976           3.4240131

 **********************************************************************

[...]
    13   1     0.13   0.27  -0.00    -0.09  -0.18  -0.00     0.06  -0.02   0.00
    14   1    -0.35  -0.13   0.27     0.25   0.10  -0.20    -0.00   0.00  -0.00
                     28                     29                     30
                     ?L                     BU                     AG
 Frequencies --   3051.0207              3057.0554              3057.0918
 Red. masses --      1.0570                 1.0387                 1.0358
 Frc consts  --      5.7972                 5.7191                 5.7037
 IR Inten    --     28.9347                79.1469                 0.0000
  Atom  AN      X      Y      Z        X      Y      Z        X      Y      Z
     1   6     0.01   0.02  -0.00     0.00   0.03   0.00     0.01   0.04  -0.00
     2   6    -0.04  -0.03  -0.00     0.02   0.01  -0.00    -0.00  -0.00  -0.00
     3   6    -0.04  -0.03  -0.00     0.02   0.01   0.00     0.00   0.00  -0.00
     4   6     0.01   0.02   0.00     0.00   0.03  -0.00    -0.01  -0.04  -0.00
     5   1     0.09  -0.03   0.00     0.34  -0.12  -0.00     0.34  -0.13   0.00
     6   1    -0.09  -0.07   0.17    -0.18  -0.13   0.32    -0.21  -0.15   0.36
     7   1    -0.09  -0.07  -0.17    -0.18  -0.13  -0.32    -0.21  -0.15  -0.36
     8   1     0.22   0.15   0.38    -0.10  -0.06  -0.17     0.01   0.01   0.02
     9   1     0.22   0.15  -0.38    -0.10  -0.06   0.17     0.01   0.01  -0.02
    10   1     0.22   0.15   0.38    -0.10  -0.06  -0.17    -0.01  -0.01  -0.02
    11   1     0.22   0.15  -0.38    -0.10  -0.06   0.17    -0.01  -0.01   0.02
    12   1    -0.09  -0.07   0.17    -0.18  -0.13   0.32     0.21   0.15  -0.36
    13   1     0.09  -0.03  -0.00     0.34  -0.12   0.00    -0.34   0.13   0.00
    14   1    -0.09  -0.07  -0.17    -0.18  -0.13  -0.32     0.21   0.15   0.36
                     31                     32                     33
                     ?C                     ?B                     ?C
 Frequencies --   3069.9097              3091.4424              3125.0134
 Red. masses --      1.1015                 1.1049                 1.1031
 Frc consts  --      6.1162                 6.2216                 6.3471
 IR Inten    --      0.0000                16.9548                 0.0000
  Atom  AN      X      Y      Z        X      Y      Z        X      Y      Z
     1   6    -0.00  -0.00   0.01     0.00  -0.00   0.03    -0.00  -0.00  -0.07
     2   6    -0.00  -0.00  -0.07     0.00   0.00  -0.06    -0.00   0.00  -0.01
     3   6    -0.00  -0.00   0.07    -0.00  -0.00  -0.06    -0.00   0.00   0.01
     4   6    -0.00  -0.00  -0.01    -0.00   0.00   0.03    -0.00  -0.00   0.07
     5   1    -0.00   0.00   0.00    -0.00   0.00   0.01     0.00  -0.00  -0.02
     6   1     0.05   0.03  -0.08     0.10   0.07  -0.16    -0.25  -0.18   0.41
     7   1    -0.05  -0.03  -0.08    -0.10  -0.07  -0.16     0.25   0.18   0.41
     8   1     0.26   0.18   0.41     0.24   0.16   0.38     0.05   0.04   0.08
     9   1    -0.26  -0.18   0.41    -0.24  -0.16   0.38    -0.05  -0.04   0.08
    10   1    -0.26  -0.18  -0.41     0.24   0.16   0.38    -0.05  -0.04  -0.08
    11   1     0.26   0.18  -0.41    -0.24  -0.16   0.38     0.05   0.04  -0.08
    12   1    -0.05  -0.03   0.08     0.10   0.07  -0.16     0.25   0.18  -0.41
    13   1    -0.00   0.00  -0.00     0.00  -0.00   0.01     0.00  -0.00   0.02
    14   1     0.05   0.03   0.08    -0.10  -0.07  -0.16    -0.25  -0.18  -0.41
                     34                     35                     36
                     ?B                     ?L                     ?L
 Frequencies --   3128.4077              3132.6342              3133.2271
 Red. masses --      1.1028                 1.1020                 1.1017
 Frc consts  --      6.3590                 6.3718                 6.3721
 IR Inten    --     88.4085                 0.0000                59.9700
  Atom  AN      X      Y      Z        X      Y      Z        X      Y      Z
     1   6    -0.00   0.00  -0.06    -0.07   0.00   0.00    -0.07   0.00   0.00
     2   6    -0.00  -0.00  -0.03    -0.00  -0.00   0.00    -0.00  -0.00   0.00
     3   6     0.00   0.00  -0.03     0.00   0.00   0.00    -0.00  -0.00  -0.00
     4   6     0.00  -0.00  -0.06     0.07  -0.00   0.00    -0.07   0.00  -0.00
     5   1     0.00  -0.00  -0.01     0.59  -0.23   0.00     0.59  -0.23  -0.00
     6   1    -0.23  -0.17   0.39     0.11   0.09  -0.22     0.11   0.10  -0.22
     7   1     0.23   0.17   0.39     0.11   0.09   0.22     0.11   0.10   0.22
     8   1     0.10   0.07   0.16     0.02   0.01   0.03     0.02   0.02   0.04
     9   1    -0.10  -0.07   0.16     0.02   0.01  -0.03     0.02   0.02  -0.04
    10   1     0.10   0.07   0.16    -0.02  -0.01  -0.03     0.02   0.02   0.04
    11   1    -0.10  -0.07   0.16    -0.02  -0.01   0.03     0.02   0.02  -0.04
    12   1    -0.23  -0.17   0.39    -0.11  -0.09   0.22     0.11   0.10  -0.22
    13   1    -0.00   0.00  -0.01    -0.59   0.23   0.00     0.59  -0.23   0.00
    14   1     0.23   0.17   0.39    -0.11  -0.09  -0.22     0.11   0.10   0.22

 -------------------
 - Thermochemistry -
 -------------------
 Temperature  5000.000 Kelvin.  Pressure   0.98700 Atm.
 Atom     1 has atomic number  6 and mass  12.00000
 Atom     2 has atomic number  6 and mass  12.00000
 Atom     3 has atomic number  6 and mass  12.00000
 Atom     4 has atomic number  6 and mass  12.00000
 Atom     5 has atomic number  1 and mass   1.00783
 Atom     6 has atomic number  1 and mass   1.00783
 Atom     7 has atomic number  1 and mass   1.00783
 Atom     8 has atomic number  1 and mass   1.00783
 Atom     9 has atomic number  1 and mass   1.00783
 Atom    10 has atomic number  1 and mass   1.00783
 Atom    11 has atomic number  1 and mass   1.00783
 Atom    12 has atomic number  1 and mass   1.00783
 Atom    13 has atomic number  1 and mass   1.00783
 Atom    14 has atomic number  1 and mass   1.00783
 Molecular mass:    58.07825 amu.
 Principal axes and moments of inertia in atomic units:
                           1         2         3
     Eigenvalues --    76.98667 494.66681 527.08362
           X           -0.42274   0.90625   0.00000
           Y            0.90625   0.42274   0.00000
           Z            0.00000  -0.00000   1.00000
 This molecule is an asymmetric top.
 Rotational symmetry number  2.
 Rotational temperatures (Kelvin)      1.12505     0.17510     0.16433
 Rotational constants (GHZ):          23.44225     3.64840     3.42401
 Zero-point vibrational energy     348224.3 (Joules/Mol)
                                   83.22760 (Kcal/Mol)
 Warning -- explicit consideration of  36 degrees of freedom as
           vibrations may cause significant error
 Identified internal rotation modes:
   43   2   3
 Vibrational temperatures:    168.96   327.47   375.33   377.54   618.92
          (Kelvin)           1053.15  1166.57  1230.89  1383.26  1412.83
                             1492.77  1562.16  1692.28  1738.03  1855.20
                             1896.39  1916.91  2011.62  2033.07  2035.62
                             2142.59  2149.72  2164.63  2166.91  2171.37
                             2177.45  4377.97  4389.74  4398.42  4398.47
                             4416.92  4447.90  4496.20  4501.08  4507.16
                             4508.02
 
 Zero-point correction=                           0.132632 (Hartree/Particle)
 Thermal correction to Energy=                    0.631522
 Thermal correction to Enthalpy=                  0.647357
 Thermal correction to Gibbs Free Energy=        -1.177249
 Sum of electronic and zero-point Energies=           -158.271508
 Sum of electronic and thermal Energies=              -157.772617
 Sum of electronic and thermal Enthalpies=            -157.756783
 Sum of electronic and thermal Free Energies=         -159.581388
 
                     E (Thermal)             CV                S
                      KCal/Mol        Cal/Mol-Kelvin    Cal/Mol-Kelvin
 Total                  396.286             75.780            228.991
 Corrected for 
 internal rot.          385.569             72.869            225.850
 Electronic               0.000              0.000              0.000
 Translational           14.904              2.981             52.132
 Rotational              14.904              2.981             31.537
 Vibrational            366.478             69.819            145.322
 Vibration     1          9.937              1.987              8.719
 Vibration     2          9.940              1.986              7.404
 Vibration     3          9.941              1.986              7.133
 Vibration     4          9.941              1.986              7.122
 Vibration     5          9.949              1.985              6.140
 Vibration     6          9.973              1.980              5.086
 Vibration     7          9.981              1.978              4.884
 Vibration     8          9.986              1.977              4.778
 Vibration     9          9.999              1.975              4.547
 Vibration    10         10.002              1.974              4.505
 Vibration    11         10.010              1.973              4.397
 Vibration    12         10.017              1.971              4.307
 Vibration    13         10.031              1.968              4.150
 Vibration    14         10.036              1.967              4.097
 Vibration    15         10.050              1.965              3.969
 Vibration    16         10.055              1.964              3.926
 Vibration    17         10.057              1.963              3.905
 Vibration    18         10.070              1.961              3.810
 Vibration    19         10.073              1.960              3.789
 Vibration    20         10.073              1.960              3.787
 Vibration    21         10.088              1.957              3.686
 Vibration    22         10.089              1.957              3.680
 Vibration    23         10.091              1.956              3.666
 Vibration    24         10.091              1.956              3.664
 Vibration    25         10.092              1.956              3.660
 Vibration    26         10.093              1.956              3.655
 Vibration    27         10.563              1.865              2.313
 Vibration    28         10.566              1.864              2.308
 Vibration    29         10.569              1.864              2.305
 Vibration    30         10.569              1.864              2.305
 Vibration    31         10.574              1.863              2.297
 Vibration    32         10.583              1.861              2.284
 Vibration    33         10.597              1.859              2.264
 Vibration    34         10.598              1.858              2.262
 Vibration    35         10.600              1.858              2.259
 Vibration    36         10.600              1.858              2.259
                       Q            Log10(Q)             Ln(Q)
 Total Bot       0.194728D+33         32.289429         74.349158
 Corrected for 
 Internal rot.   0.117822D+33         32.071226         73.846727
 Total V=0       0.845731D+36         35.927232         82.725509
 Corrected for 
 Internal rot.   0.511716D+36         35.709029         82.223078
 Vib (Bot)       0.550823D+16         15.741012         36.245019
 Vib (Bot)    1  0.295905D+02          1.471153          3.387454
 Vib (Bot)    2  0.152660D+02          1.183724          2.725625
 Vib (Bot)    3  0.133185D+02          1.124455          2.589153
 Vib (Bot)    4  0.132405D+02          1.121906          2.583283
 Vib (Bot)    5  0.807349D+01          0.907062          2.088586
 Vib (Bot)    6  0.473889D+01          0.675677          1.555803
 Vib (Bot)    7  0.427635D+01          0.631073          1.453100
 Vib (Bot)    8  0.405187D+01          0.607656          1.399179
 Vib (Bot)    9  0.360314D+01          0.556681          1.281806
 Vib (Bot)   10  0.352724D+01          0.547435          1.260516
 Vib (Bot)   11  0.333706D+01          0.523365          1.205091
 Vib (Bot)   12  0.318772D+01          0.503480          1.159306
 Vib (Bot)   13  0.294055D+01          0.468428          1.078595
 Vib (Bot)   14  0.286239D+01          0.456728          1.051656
 Vib (Bot)   15  0.267973D+01          0.428091          0.985715
 Vib (Bot)   16  0.262086D+01          0.418443          0.963501
 Vib (Bot)   17  0.259246D+01          0.413711          0.952606
 Vib (Bot)   18  0.246888D+01          0.392500          0.903764
 Vib (Bot)   19  0.244248D+01          0.387831          0.893013
 Vib (Bot)   20  0.243938D+01          0.387279          0.891742
 Vib (Bot)   21  0.231586D+01          0.364712          0.839781
 Vib (Bot)   22  0.230807D+01          0.363249          0.836412
 Vib (Bot)   23  0.229192D+01          0.360200          0.829390
 Vib (Bot)   24  0.228947D+01          0.359735          0.828320
 Vib (Bot)   25  0.228470D+01          0.358829          0.826235
 Vib (Bot)   26  0.227822D+01          0.357595          0.823393
 Vib (Bot)   27  0.110640D+01          0.043911          0.101109
 Vib (Bot)   28  0.110324D+01          0.042672          0.098256
 Vib (Bot)   29  0.110093D+01          0.041759          0.096154
 Vib (Bot)   30  0.110091D+01          0.041754          0.096142
 Vib (Bot)   31  0.109602D+01          0.039820          0.091690
 Vib (Bot)   32  0.108790D+01          0.036589          0.084248
 Vib (Bot)   33  0.107545D+01          0.031589          0.072737
 Vib (Bot)   34  0.107420D+01          0.031086          0.071579
 Vib (Bot)   35  0.107266D+01          0.030461          0.070139
 Vib (Bot)   36  0.107244D+01          0.030373          0.069937
 Vib (V=0)       0.239229D+20         19.378815         44.621370
 Vib (V=0)    1  0.300948D+02          1.478491          3.404351
 Vib (V=0)    2  0.157741D+02          1.197946          2.758372
 Vib (V=0)    3  0.138279D+02          1.140755          2.626686
 Vib (V=0)    4  0.137500D+02          1.138302          2.621037
 Vib (V=0)    5  0.858896D+01          0.933941          2.150478
 Vib (V=0)    6  0.526519D+01          0.721414          1.661118
 Vib (V=0)    7  0.480548D+01          0.681737          1.569757
 Vib (V=0)    8  0.458261D+01          0.661113          1.522268
 Vib (V=0)    9  0.413767D+01          0.616756          1.420133
 Vib (V=0)   10  0.406250D+01          0.608794          1.401800
 Vib (V=0)   11  0.387431D+01          0.588195          1.354369
 Vib (V=0)   12  0.372670D+01          0.571324          1.315522
 Vib (V=0)   13  0.348275D+01          0.541923          1.247823
 Vib (V=0)   14  0.340573D+01          0.532210          1.225459
 Vib (V=0)   15  0.322597D+01          0.508661          1.171235
 Vib (V=0)   16  0.316812D+01          0.500802          1.153139
 Vib (V=0)   17  0.314023D+01          0.496962          1.144297
 Vib (V=0)   18  0.301900D+01          0.479863          1.104925
 Vib (V=0)   19  0.299313D+01          0.476126          1.096320
 Vib (V=0)   20  0.299009D+01          0.475684          1.095304
 Vib (V=0)   21  0.286922D+01          0.457764          1.054040
 Vib (V=0)   22  0.286161D+01          0.456610          1.051383
 Vib (V=0)   23  0.284583D+01          0.454208          1.045853
 Vib (V=0)   24  0.284343D+01          0.453843          1.045012
 Vib (V=0)   25  0.283877D+01          0.453130          1.043371
 Vib (V=0)   26  0.283244D+01          0.452160          1.041138
 Vib (V=0)   27  0.171413D+01          0.234044          0.538907
 Vib (V=0)   28  0.171126D+01          0.233316          0.537230
 Vib (V=0)   29  0.170915D+01          0.232780          0.535996
 Vib (V=0)   30  0.170914D+01          0.232777          0.535989
 Vib (V=0)   31  0.170469D+01          0.231645          0.533382
 Vib (V=0)   32  0.169730D+01          0.229758          0.529038
 Vib (V=0)   33  0.168600D+01          0.226857          0.522357
 Vib (V=0)   34  0.168487D+01          0.226566          0.521687
 Vib (V=0)   35  0.168347D+01          0.226205          0.520855
 Vib (V=0)   36  0.168327D+01          0.226154          0.520739
 Electronic      0.100000D+01          0.000000          0.000000
 Translational   0.203000D+11         10.307495         23.733884
 Rotational      0.174150D+07          6.240922         14.370255
 ***** Axes restored to original set *****
 -------------------------------------------------------------------
 Center     Atomic                   Forces (Hartrees/Bohr)
 Number     Number              X              Y              Z
 -------------------------------------------------------------------
      1        6           0.000348141    0.000123580    0.000098359
      2        6          -0.000496296   -0.000131200   -0.000104425
      3        6           0.000496296    0.000131200    0.000104425
      4        6          -0.000348141   -0.000123580   -0.000098359
      5        1          -0.000003413   -0.000022347   -0.000017786
      6        1          -0.000029516   -0.000066742   -0.000030862
      7        1          -0.000029516   -0.000045050   -0.000058116
      8        1           0.000113081    0.000059022    0.000049436
      9        1           0.000113081    0.000061418    0.000046425
     10        1          -0.000113081   -0.000059022   -0.000049436
     11        1          -0.000113081   -0.000061418   -0.000046425
     12        1           0.000029516    0.000066742    0.000030862
     13        1           0.000003413    0.000022347    0.000017786
     14        1           0.000029516    0.000045050    0.000058116
 -------------------------------------------------------------------
 Cartesian Forces:  Max     0.000496296 RMS     0.000149824
 FormGI is forming the generalized inverse of G from B-inverse, IUseBI=4.
 Dipole is zero, so no output in dipole orientation.

 ----------------------------------------------------------------------

 Electric dipole moment (input orientation):
 (Debye = 10**-18 statcoulomb cm , SI units = C m)
                  (au)            (Debye)         (10**-30 SI)
   Tot        0.000000D+00      0.000000D+00      0.000000D+00
   x          0.000000D+00      0.000000D+00      0.000000D+00
   y          0.000000D+00      0.000000D+00      0.000000D+00
   z          0.000000D+00      0.000000D+00      0.000000D+00

 Dipole polarizability, Alpha (input orientation).
 (esu units = cm**3 , SI units = C**2 m**2 J**-1)
 Alpha(0;0):
               (au)            (10**-24 esu)      (10**-40 SI)
   iso        0.501131D+02      0.742599D+01      0.826253D+01
   aniso      0.107159D+02      0.158793D+01      0.176681D+01
   xx         0.557356D+02      0.825917D+01      0.918956D+01
   yx        -0.260050D+01     -0.385355D+00     -0.428765D+00
   yy         0.477228D+02      0.707178D+01      0.786842D+01
   zx        -0.206975D+01     -0.306706D+00     -0.341256D+00
   zy         0.182838D+01      0.270938D+00      0.301460D+00
   zz         0.468808D+02      0.694701D+01      0.772960D+01

 ----------------------------------------------------------------------

 This type of calculation cannot be archived.


 THESE ARE THE TIMES THAT TRY MENS SOULS.
 THE SUMMER SOLDIER AND THE SUNSHINE PATRIOT WILL IN THIS CRISIS,
 SHRINK FROM THE SERVICE OF HIS COUNTRY.  BUT HE THAT STANDS NOW,
 DESERVES THE LOVE AND THANKS OF MAN AND WOMAN.
 TYRANNY, LIKE HELL, IS NOT EASILY CONQUERED,
 YET WE HAVE THIS CONSOLATION WITH US,
 THAT THE HARDER THE CONFLICT, THE MORE GLORIOUS THE TRIUMPH.
 WHAT WE OBTAIN TOO CHEAP, WE ESTEEM TOO LIGHTLY, 
 'TIS DEARNESS ONLY THAT GIVES EVERYTHING ITS VALUE.

                                              -- TOM PAINE
 Job cpu time:       0 days  0 hours  0 minutes  0.5 seconds.
 Elapsed time:       0 days  0 hours  0 minutes  0.5 seconds.
 File lengths (MBytes):  RWF=      6 Int=      0 D2E=      0 Chk=      3 Scr=      1
 Normal termination of Gaussian 16 at Mon Jul 25 13:51:03 2022.
