 Entering Gaussian System, Link 0=g09
 Initial command:
 /software/g09/l1.exe /home/tmp/g16/Gau-3961194.inp -scrdir=/home/tmp/g16/
 Entering Link 1 = /software/g09/l1.exe PID=   3961195.
  
 Copyright (c) 1988,1990,1992,1993,1995,1998,2003,2009, Gaussian, Inc.
                  All Rights Reserved.
  
 This is part of the Gaussian(R) 09 program.  It is based on
 the Gaussian(R) 03 system (copyright 2003, Gaussian, Inc.),
 the Gaussian(R) 98 system (copyright 1998, Gaussian, Inc.),
 the Gaussian(R) 94 system (copyright 1995, Gaussian, Inc.),
 the Gaussian 92(TM) system (copyright 1992, Gaussian, Inc.),
 the Gaussian 90(TM) system (copyright 1990, Gaussian, Inc.),
 the Gaussian 88(TM) system (copyright 1988, Gaussian, Inc.),
 the Gaussian 86(TM) system (copyright 1986, Carnegie Mellon
 University), and the Gaussian 82(TM) system (copyright 1983,
 Carnegie Mellon University). Gaussian is a federally registered
 trademark of Gaussian, Inc.
  
 This software contains proprietary and confidential information,
 including trade secrets, belonging to Gaussian, Inc.
  
 This software is provided under written license and may be
 used, copied, transmitted, or stored only in accord with that
 written license.
  
 The following legend is applicable only to US Government
 contracts under FAR:
  
                    RESTRICTED RIGHTS LEGEND
  
 Use, reproduction and disclosure by the US Government is
 subject to restrictions as set forth in subparagraphs (a)
 and (c) of the Commercial Computer Software - Restricted
 Rights clause in FAR 52.227-19.
  
 Gaussian, Inc.
 340 Quinnipiac St., Bldg. 40, Wallingford CT 06492
  
  
 ---------------------------------------------------------------
 Warning -- This program may not be used in any manner that
 competes with the business of Gaussian, Inc. or will provide
 assistance to any competitor of Gaussian, Inc.  The licensee
 of this program is prohibited from giving any competitor of
 Gaussian, Inc. access to this program.  By using this program,
 the user acknowledges that Gaussian, Inc. is engaged in the
 business of creating and licensing software in the field of
 computational chemistry and represents and warrants to the
 licensee that it is not a competitor of Gaussian, Inc. and that
 it will not use this program in any manner prohibited above.
 ---------------------------------------------------------------
  

 Cite this work as:
 Gaussian 09, Revision A.01,
 M. J. Frisch, G. W. Trucks, H. B. Schlegel, G. E. Scuseria, 
 M. A. Robb, J. R. Cheeseman, G. Scalmani, V. Barone, B. Mennucci, 
 G. A. Petersson, H. Nakatsuji, M. Caricato, X. Li, H. P. Hratchian, 
 A. F. Izmaylov, J. Bloino, G. Zheng, J. L. Sonnenberg, M. Hada, 
 M. Ehara, K. Toyota, R. Fukuda, J. Hasegawa, M. Ishida, T. Nakajima, 
 Y. Honda, O. Kitao, H. Nakai, T. Vreven, J. A. Montgomery, Jr., 
 J. E. Peralta, F. Ogliaro, M. Bearpark, J. J. Heyd, E. Brothers, 
 K. N. Kudin, V. N. Staroverov, R. Kobayashi, J. Normand, 
 K. Raghavachari, A. Rendell, J. C. Burant, S. S. Iyengar, J. Tomasi, 
 M. Cossi, N. Rega, J. M. Millam, M. Klene, J. E. Knox, J. B. Cross, 
 V. Bakken, C. Adamo, J. Jaramillo, R. Gomperts, R. E. Stratmann, 
 O. Yazyev, A. J. Austin, R. Cammi, C. Pomelli, J. W. Ochterski, 
 R. L. Martin, K. Morokuma, V. G. Zakrzewski, G. A. Voth, 
 P. Salvador, J. J. Dannenberg, S. Dapprich, A. D. Daniels, 
 O. Farkas, J. B. Foresman, J. V. Ortiz, J. Cioslowski, 
 and D. J. Fox, Gaussian, Inc., Wallingford CT, 2009.
 
 ******************************************
 Gaussian 09:  EM64L-G09RevA.01  8-May-2009
                17-Mar-2022 
 ******************************************
 %nprocshared=8
 Will use up to    8 processors via shared memory.
 %chk=[CH2]-T.chk
 ----------------------------------------------------------------------
 # opt freq=hinderedrotor UM062X/6-311++g(d,p) press=0.987 symm=loose
 ----------------------------------------------------------------------
 1/14=-1,18=20,19=15,26=3,38=1,112=-986920/1,3;
 2/9=110,12=2,17=4,18=3,40=1/2;
 3/5=4,6=6,7=1111,11=2,16=1,25=1,30=1,71=1,74=-55,116=2/1,2,3;
 4//1;
 5/5=2,38=5/2;
 6/7=2,8=2,9=2,10=2,28=1/1;
 7//1,2,3,16;
 1/14=-1,18=20,19=15/3(2);
 2/9=110/2;
 99/8=20/99;
 2/9=110/2;
 3/5=4,6=6,7=1111,11=2,16=1,25=1,30=1,71=1,74=-55,116=2/1,2,3;
 4/5=5,16=3/1;
 5/5=2,38=5/2;
 7//1,2,3,16;
 1/14=-1,18=20,19=15/3(-5);
 2/9=110/2;
 6/7=2,8=2,9=2,10=2,19=2,28=1/1;
 99/8=20,9=1/99;
 ---------
 [CH2]-T_1
 ---------
 Symbolic Z-matrix:
 Charge =  0 Multiplicity = 3
 C                     0.        0.1042    0. 
 H                     0.99449  -0.31261   0. 
 H                    -0.99449  -0.31261   0. 
 

 GradGradGradGradGradGradGradGradGradGradGradGradGradGradGradGradGradGrad
 Berny optimization.
 Initialization pass.
                           ----------------------------
                           !    Initial Parameters    !
                           ! (Angstroms and Degrees)  !
 --------------------------                            --------------------------
 ! Name  Definition              Value          Derivative Info.                !
 --------------------------------------------------------------------------------
 ! R1    R(1,2)                  1.0783         estimate D2E/DX2                !
 ! R2    R(1,3)                  1.0783         estimate D2E/DX2                !
 ! A1    A(2,1,3)              134.5207         estimate D2E/DX2                !
 --------------------------------------------------------------------------------
 Trust Radius=3.00D-01 FncErr=1.00D-07 GrdErr=1.00D-06
 Number of steps in this run=  20 maximum allowed number of steps= 100.
 GradGradGradGradGradGradGradGradGradGradGradGradGradGradGradGradGradGrad

                          Input orientation:                          
 ---------------------------------------------------------------------
 Center     Atomic      Atomic             Coordinates (Angstroms)
 Number     Number       Type             X           Y           Z
 ---------------------------------------------------------------------
      1          6           0        0.000000    0.104203    0.000000
      2          1           0        0.994487   -0.312606    0.000000
      3          1           0       -0.994487   -0.312612    0.000000
 ---------------------------------------------------------------------
                    Distance matrix (angstroms):
                    1          2          3
     1  C    0.000000
     2  H    1.078302   0.000000
     3  H    1.078304   1.988974   0.000000
 Stoichiometry    CH2(3)
 Framework group  C2V[C2(C),SGV(H2)]
 Deg. of freedom     2
 Full point group                 C2V     NOp   4
 Largest Abelian subgroup         C2V     NOp   4
 Largest concise Abelian subgroup C2      NOp   2
                         Standard orientation:                         
 ---------------------------------------------------------------------
 Center     Atomic      Atomic             Coordinates (Angstroms)
 Number     Number       Type             X           Y           Z
 ---------------------------------------------------------------------
      1          6           0        0.000000    0.000000    0.104203
      2          1           0        0.000000   -0.994486   -0.312609
      3          1           0        0.000000    0.994486   -0.312609
 ---------------------------------------------------------------------
 Rotational constants (GHZ):   1685.5928522    253.5156563    220.3714626
 Standard basis: 6-311++G(d,p) (5D, 7F)
 There are    17 symmetry adapted basis functions of A1  symmetry.
 There are     2 symmetry adapted basis functions of A2  symmetry.
 There are     6 symmetry adapted basis functions of B1  symmetry.
 There are    11 symmetry adapted basis functions of B2  symmetry.
 Integral buffers will be    131072 words long.
 Raffenetti 2 integral format.
 Two-electron integral symmetry is turned on.
    36 basis functions,    54 primitive gaussians,    37 cartesian basis functions
     5 alpha electrons        3 beta electrons
       nuclear repulsion energy         6.1550621256 Hartrees.
 NAtoms=    3 NActive=    3 NUniq=    2 SFac= 1.69D+00 NAtFMM=   80 NAOKFM=F Big=F
 One-electron integrals computed using PRISM.
 NBasis=    36 RedAO= T  NBF=    17     2     6    11
 NBsUse=    36 1.00D-06 NBFU=    17     2     6    11
 Harris functional with IExCor= 1009 diagonalized for initial guess.
 ExpMin= 3.60D-02 ExpMax= 4.56D+03 ExpMxC= 6.82D+02 IAcc=3 IRadAn=         0 AccDes= 0.00D+00
 HarFok:  IExCor= 1009 AccDes= 0.00D+00 IRadAn=         0 IDoV= 1
 ScaDFX=  1.000000  1.000000  1.000000  1.000000
 FoFCou: FMM=F IPFlag=           0 FMFlag=      100000 FMFlg1=           0
         NFxFlg=           0 DoJE=T BraDBF=F KetDBF=T FulRan=T
         Omega=  0.000000  0.000000  1.000000  0.000000  0.000000 ICntrl=     500 IOpCl=  0
         NMat0=    1 NMatS0=    1 NMatT0=    0 NMatD0=    1 NMtDS0=    0 NMtDT0=    0
         I1Cent=           4 NGrid=           0.
 Petite list used in FoFCou.
 Initial guess orbital symmetries:
 Alpha Orbitals:
       Occupied  (A1) (A1) (B2) (A1) (B1)
       Virtual   (A1) (B2) (A1) (B1) (A1) (B2) (A1) (B2) (A1) (B2)
                 (B1) (A1) (B2) (A1) (A2) (A1) (B1) (B2) (A1) (B1)
                 (B2) (A1) (A2) (B2) (B2) (A1) (A1) (B1) (A1) (B2)
                 (A1)
 Beta  Orbitals:
       Occupied  (A1) (A1) (B2)
       Virtual   (A1) (B1) (A1) (B2) (A1) (B1) (A1) (B2) (A1) (B2)
                 (A1) (B2) (B1) (A1) (B2) (A1) (A2) (A1) (B1) (B2)
                 (A1) (B1) (B2) (A1) (A2) (B2) (B2) (A1) (A1) (B1)
                 (A1) (B2) (A1)
 The electronic state of the initial guess is 3-B1.
 Initial guess <Sx>= 0.0000 <Sy>= 0.0000 <Sz>= 1.0000 <S**2>= 2.0000 S= 1.0000
 Requested convergence on RMS density matrix=1.00D-08 within 128 cycles.
 Requested convergence on MAX density matrix=1.00D-06.
 Requested convergence on             energy=1.00D-06.
 No special actions if energy rises.
 Keep R1 and R2 ints in memory in canonical form, NReq=1403417.
 SCF Done:  E(UM062X) =  -39.1419472588     A.U. after   10 cycles
             Convg  =    0.6875D-08             -V/T =  2.0037
 <Sx>= 0.0000 <Sy>= 0.0000 <Sz>= 1.0000 <S**2>= 2.0063 S= 1.0021
 <L.S>= 0.000000000000E+00
 Annihilation of the first spin contaminant:
 S**2 before annihilation     2.0063,   after     2.0000

 **********************************************************************

            Population analysis using the SCF density.

 **********************************************************************

 Orbital symmetries:
 Alpha Orbitals:
       Occupied  (A1) (A1) (B2) (A1) (B1)
       Virtual   (A1) (B2) (A1) (B1) (B2) (A1) (A1) (B2) (A1) (B2)
                 (B1) (A1) (B2) (A1) (A2) (A1) (B1) (B2) (A1) (B1)
                 (B2) (A1) (A2) (B2) (B2) (A1) (A1) (B1) (A1) (B2)
                 (A1)
 Beta  Orbitals:
       Occupied  (A1) (A1) (B2)
       Virtual   (A1) (B1) (A1) (B2) (A1) (B2) (A1) (B1) (A1) (B2)
                 (A1) (B2) (B1) (A1) (B2) (A1) (A2) (A1) (B1) (B2)
                 (A1) (B1) (B2) (A1) (A2) (B2) (A1) (B2) (A1) (B1)
                 (A1) (B2) (A1)
 The electronic state is 3-B1.
 Alpha  occ. eigenvalues --  -10.57315  -0.76745  -0.52584  -0.34310  -0.30442
 Alpha virt. eigenvalues --    0.00533   0.02901   0.08136   0.08743   0.12572
 Alpha virt. eigenvalues --    0.13976   0.17589   0.22739   0.45799   0.51675
 Alpha virt. eigenvalues --    0.56987   0.57984   0.70076   0.79365   1.06119
 Alpha virt. eigenvalues --    1.22697   1.25173   1.35049   1.52810   1.71799
 Alpha virt. eigenvalues --    1.82170   1.91312   2.03658   2.40803   2.53640
 Alpha virt. eigenvalues --    2.58378   2.68015   2.75399   2.93093   3.68003
 Alpha virt. eigenvalues --   23.87533
  Beta  occ. eigenvalues --  -10.55496  -0.67861  -0.50491
  Beta virt. eigenvalues --   -0.06164  -0.03529   0.01956   0.04360   0.09774
  Beta virt. eigenvalues --    0.12342   0.14351   0.14765   0.20360   0.23925
  Beta virt. eigenvalues --    0.47938   0.51008   0.59077   0.59877   0.77968
  Beta virt. eigenvalues --    0.82946   1.19397   1.34255   1.36571   1.44568
  Beta virt. eigenvalues --    1.59249   1.77426   1.86020   1.95256   2.07663
  Beta virt. eigenvalues --    2.48715   2.63010   2.72406   2.80305   2.80631
  Beta virt. eigenvalues --    3.16833   3.84023  23.90621
          Condensed to atoms (all electrons):
              1          2          3
     1  C    5.580282   0.371012   0.371012
     2  H    0.371012   0.501213  -0.033377
     3  H    0.371012  -0.033377   0.501213
 Mulliken atomic charges:
              1
     1  C   -0.322305
     2  H    0.161153
     3  H    0.161153
 Sum of Mulliken atomic charges =   0.00000
 Mulliken charges with hydrogens summed into heavy atoms:
              1
     1  C    0.000000
 Sum of Mulliken charges with hydrogens summed into heavy atoms =   0.00000
          Atomic-Atomic Spin Densities.
              1          2          3
     1  C    2.109593  -0.028404  -0.028404
     2  H   -0.028404  -0.005524   0.007535
     3  H   -0.028404   0.007535  -0.005524
 Mulliken atomic spin densities:
              1
     1  C    2.052785
     2  H   -0.026393
     3  H   -0.026393
 Sum of Mulliken atomic spin densities =   2.00000
 Electronic spatial extent (au):  <R**2>=             24.4552
 Charge=              0.0000 electrons
 Dipole moment (field-independent basis, Debye):
    X=              0.0000    Y=              0.0000    Z=             -0.6823  Tot=              0.6823
 Quadrupole moment (field-independent basis, Debye-Ang):
   XX=             -8.3955   YY=             -5.8975   ZZ=             -7.8476
   XY=              0.0000   XZ=              0.0000   YZ=              0.0000
 Traceless Quadrupole moment (field-independent basis, Debye-Ang):
   XX=             -1.0153   YY=              1.4827   ZZ=             -0.4674
   XY=              0.0000   XZ=              0.0000   YZ=              0.0000
 Octapole moment (field-independent basis, Debye-Ang**2):
  XXX=              0.0000  YYY=              0.0000  ZZZ=             -1.1816  XYY=              0.0000
  XXY=              0.0000  XXZ=             -0.4087  XZZ=              0.0000  YZZ=              0.0000
  YYZ=             -1.0914  XYZ=              0.0000
 Hexadecapole moment (field-independent basis, Debye-Ang**3):
 XXXX=            -11.1659 YYYY=            -13.6090 ZZZZ=            -11.2797 XXXY=              0.0000
 XXXZ=              0.0000 YYYX=              0.0000 YYYZ=              0.0000 ZZZX=              0.0000
 ZZZY=              0.0000 XXYY=             -4.7041 XXZZ=             -3.7539 YYZZ=             -4.3506
 XXYZ=              0.0000 YYXZ=              0.0000 ZZXY=              0.0000
 N-N= 6.155062125591D+00 E-N=-1.488798594210D+02  KE= 5.722312597072D+01
 Symmetry A1   KE= 5.306760987182D+01
 Symmetry A2   KE= 1.981891860538D-34
 Symmetry B1   KE= 1.165662107149D+00
 Symmetry B2   KE= 2.989853991751D+00
                          Isotropic Fermi Contact Couplings
        Atom                 a.u.       MegaHertz       Gauss      10(-4) cm-1
     1  C(13)              0.59380     333.77372     119.09876     111.33493
     2  H(1)              -0.00473     -10.56738      -3.77070      -3.52490
     3  H(1)              -0.00473     -10.56738      -3.77070      -3.52490
 --------------------------------------------------------
       Center         ----  Spin Dipole Couplings  ----
                      3XX-RR        3YY-RR        3ZZ-RR
 --------------------------------------------------------
     1   Atom        0.676036     -1.086376      0.410340
     2   Atom       -0.063864      0.115892     -0.052028
     3   Atom       -0.063864      0.115892     -0.052028
 --------------------------------------------------------
                        XY            XZ            YZ
 --------------------------------------------------------
     1   Atom        0.000000      0.000000      0.000000
     2   Atom        0.000000      0.000000      0.083412
     3   Atom        0.000000      0.000000     -0.083412
 --------------------------------------------------------


 ---------------------------------------------------------------------------------
              Anisotropic Spin Dipole Couplings in Principal Axis System
 ---------------------------------------------------------------------------------

       Atom             a.u.   MegaHertz   Gauss  10(-4) cm-1        Axes

              Baa    -1.0864  -145.781   -52.018   -48.627  0.0000  1.0000  0.0000
     1 C(13)  Bbb     0.4103    55.064    19.648    18.367  0.0000  0.0000  1.0000
              Bcc     0.6760    90.718    32.370    30.260  1.0000  0.0000  0.0000
 
              Baa    -0.0864   -46.109   -16.453   -15.380  0.0000 -0.3812  0.9245
     2 H(1)   Bbb    -0.0639   -34.075   -12.159   -11.366  1.0000  0.0000  0.0000
              Bcc     0.1503    80.184    28.611    26.746  0.0000  0.9245  0.3812
 
              Baa    -0.0864   -46.109   -16.453   -15.380  0.0000  0.3812  0.9245
     3 H(1)   Bbb    -0.0639   -34.075   -12.159   -11.366  1.0000  0.0000  0.0000
              Bcc     0.1503    80.184    28.611    26.746  0.0000  0.9245 -0.3812
 

 ---------------------------------------------------------------------------------

 Calling FoFJK, ICntrl=      2127 FMM=F ISym2X=1 I1Cent= 0 IOpClX= 1 NMat=1 NMatS=1 NMatT=0.
 ***** Axes restored to original set *****
 -------------------------------------------------------------------
 Center     Atomic                   Forces (Hartrees/Bohr)
 Number     Number              X              Y              Z
 -------------------------------------------------------------------
      1        6           0.000000000   -0.000024123    0.000000000
      2        1          -0.000017735    0.000012061    0.000000000
      3        1           0.000017735    0.000012062    0.000000000
 -------------------------------------------------------------------
 Cartesian Forces:  Max     0.000024123 RMS     0.000012918

 GradGradGradGradGradGradGradGradGradGradGradGradGradGradGradGradGradGrad
 Berny optimization.
 Internal  Forces:  Max     0.000021018 RMS     0.000017881
 Search for a local minimum.
 Step number   1 out of a maximum of   20
 All quantities printed in internal units (Hartrees-Bohrs-Radians)
 Mixed Optimization -- En-DIIS/RFO-DIIS
 Second derivative matrix not updated -- first step.
 The second derivative matrix:
                          R1        R2        A1
           R1           0.36200
           R2           0.00000   0.36200
           A1           0.00000   0.00000   0.16000
     Eigenvalues ---    0.16000   0.36200   0.36200
 RFO step:  Lambda= 0.00000000D+00 EMin= 1.60000000D-01
 Linear search not attempted -- first point.
 Iteration  1 RMS(Cart)=  0.00004347 RMS(Int)=  0.00000000
 Iteration  2 RMS(Cart)=  0.00000000 RMS(Int)=  0.00000000
 ClnCor:  largest displacement from symmetrization is 6.04D-16 for atom     1.
 Variable       Old X    -DE/DX   Delta X   Delta X   Delta X     New X
                                 (Linear)    (Quad)   (Total)
    R1        2.03770  -0.00002   0.00000  -0.00006  -0.00006   2.03764
    R2        2.03770  -0.00002   0.00000  -0.00006  -0.00006   2.03764
    A1        2.34783   0.00001   0.00000   0.00005   0.00005   2.34788
         Item               Value     Threshold  Converged?
 Maximum Force            0.000021     0.000450     YES
 RMS     Force            0.000018     0.000300     YES
 Maximum Displacement     0.000049     0.001800     YES
 RMS     Displacement     0.000043     0.001200     YES
 Predicted change in Energy=-1.456803D-09
 Optimization completed.
    -- Stationary point found.
                           ----------------------------
                           !   Optimized Parameters   !
                           ! (Angstroms and Degrees)  !
 --------------------------                            --------------------------
 ! Name  Definition              Value          Derivative Info.                !
 --------------------------------------------------------------------------------
 ! R1    R(1,2)                  1.0783         -DE/DX =    0.0                 !
 ! R2    R(1,3)                  1.0783         -DE/DX =    0.0                 !
 ! A1    A(2,1,3)              134.5206         -DE/DX =    0.0                 !
 --------------------------------------------------------------------------------
 GradGradGradGradGradGradGradGradGradGradGradGradGradGradGradGradGradGrad

                          Input orientation:                          
 ---------------------------------------------------------------------
 Center     Atomic      Atomic             Coordinates (Angstroms)
 Number     Number       Type             X           Y           Z
 ---------------------------------------------------------------------
      1          6           0        0.000000    0.104203    0.000000
      2          1           0        0.994487   -0.312606    0.000000
      3          1           0       -0.994485   -0.312613    0.000000
 ---------------------------------------------------------------------
                    Distance matrix (angstroms):
                    1          2          3
     1  C    0.000000
     2  H    1.078302   0.000000
     3  H    1.078302   1.988972   0.000000
 Stoichiometry    CH2(3)
 Framework group  C2V[C2(C),SGV(H2)]
 Deg. of freedom     2
 Full point group                 C2V     NOp   4
 Largest Abelian subgroup         C2V     NOp   4
 Largest concise Abelian subgroup C2      NOp   2
                         Standard orientation:                         
 ---------------------------------------------------------------------
 Center     Atomic      Atomic             Coordinates (Angstroms)
 Number     Number       Type             X           Y           Z
 ---------------------------------------------------------------------
      1          6           0        0.000000    0.000000    0.104203
      2          1           0        0.000000    0.994486   -0.312609
      3          1           0        0.000000   -0.994486   -0.312609
 ---------------------------------------------------------------------
 Rotational constants (GHZ):   1685.5928522    253.5156563    220.3714626
 1\1\GINC-LOCALHOST\FOpt\UM062X\6-311++G(d,p)\C1H2(3)\ROOT\17-Mar-2022\
 0\\# opt freq=hinderedrotor UM062X/6-311++g(d,p) press=0.987 symm=lo
 ose\\[CH2]-T_1\\0,3\C,-0.000000362,0.104203,0.\H,0.994487,-0.312606,0.
 \H,-0.9944848278,-0.3126129104,0.\\Version=EM64L-G09RevA.01\State=3-B1
 \HF=-39.1419473\S2=2.006297\S2-1=0.\S2A=2.000011\RMSD=6.875e-09\RMSF=1
 .292e-05\Dipole=0.0000009,-0.2684287,0.\Quadrupole=1.102363,-0.3474919
 ,-0.7548711,0.000005,0.,0.\PG=C02V [C2(C1),SGV(H2)]\\@


 LIFE IS SO UNCERTAIN - EAT DESSERT FIRST.
 Job cpu time:  0 days  0 hours  0 minutes  8.7 seconds.
 File lengths (MBytes):  RWF=      5 Int=      0 D2E=      0 Chk=      1 Scr=      1
 Normal termination of Gaussian 09 at Thu Mar 17 11:55:41 2022.
 Link1:  Proceeding to internal job step number  2.
 ----------------------------------------------------------------------
 #N Geom=AllCheck Guess=TCheck SCRF=Check GenChk UM062X/6-311++G(d,p) F
 req
 ----------------------------------------------------------------------
 1/10=4,18=20,29=7,30=1,38=1,40=1,112=-986920/1,3;
 2/12=2,17=4,18=3,40=1/2;
 3/5=4,6=6,7=1111,11=2,14=-4,16=1,25=1,30=1,70=2,71=2,74=-55,116=2/1,2,3;
 4/5=101/1;
 5/5=2,98=1/2;
 8/6=4,10=90,11=11/1;
 11/6=1,8=1,9=11,15=111,16=1/1,2,10;
 10/6=1/2;
 6/7=2,8=2,9=2,10=2,18=1,28=1/1;
 7/8=2001,10=1,25=1/1,2,3,16;
 1/10=4,18=20,30=1/3;
 99/8=20/99;
 ---------
 [CH2]-T_1
 ---------
 Redundant internal coordinates taken from checkpoint file:
 [CH2]-T.chk
 Charge =  0 Multiplicity = 3
 C,0,-0.000000362,0.104203,0.
 H,0,0.994487,-0.312606,0.
 H,0,-0.9944848278,-0.3126129104,0.
 Recover connectivity data from disk.

 GradGradGradGradGradGradGradGradGradGradGradGradGradGradGradGradGradGrad
 Berny optimization.
 Initialization pass.
                           ----------------------------
                           !    Initial Parameters    !
                           ! (Angstroms and Degrees)  !
 --------------------------                            --------------------------
 ! Name  Definition              Value          Derivative Info.                !
 --------------------------------------------------------------------------------
 ! R1    R(1,2)                  1.0783         calculate D2E/DX2 analytically  !
 ! R2    R(1,3)                  1.0783         calculate D2E/DX2 analytically  !
 ! A1    A(2,1,3)              134.5206         calculate D2E/DX2 analytically  !
 --------------------------------------------------------------------------------
 Trust Radius=3.00D-01 FncErr=1.00D-07 GrdErr=1.00D-07
 Number of steps in this run=   2 maximum allowed number of steps=   2.
 GradGradGradGradGradGradGradGradGradGradGradGradGradGradGradGradGradGrad

                          Input orientation:                          
 ---------------------------------------------------------------------
 Center     Atomic      Atomic             Coordinates (Angstroms)
 Number     Number       Type             X           Y           Z
 ---------------------------------------------------------------------
      1          6           0        0.000000    0.104203    0.000000
      2          1           0        0.994487   -0.312606    0.000000
      3          1           0       -0.994485   -0.312613    0.000000
 ---------------------------------------------------------------------
                    Distance matrix (angstroms):
                    1          2          3
     1  C    0.000000
     2  H    1.078302   0.000000
     3  H    1.078302   1.988972   0.000000
 Stoichiometry    CH2(3)
 Framework group  C2V[C2(C),SGV(H2)]
 Deg. of freedom     2
 Full point group                 C2V     NOp   4
 Largest Abelian subgroup         C2V     NOp   4
 Largest concise Abelian subgroup C2      NOp   2
                         Standard orientation:                         
 ---------------------------------------------------------------------
 Center     Atomic      Atomic             Coordinates (Angstroms)
 Number     Number       Type             X           Y           Z
 ---------------------------------------------------------------------
      1          6           0        0.000000    0.000000    0.104203
      2          1           0        0.000000    0.994486   -0.312609
      3          1           0        0.000000   -0.994486   -0.312609
 ---------------------------------------------------------------------
 Rotational constants (GHZ):   1685.5928522    253.5156563    220.3714626
 Standard basis: 6-311++G(d,p) (5D, 7F)
 There are    17 symmetry adapted basis functions of A1  symmetry.
 There are     2 symmetry adapted basis functions of A2  symmetry.
 There are     6 symmetry adapted basis functions of B1  symmetry.
 There are    11 symmetry adapted basis functions of B2  symmetry.
 Integral buffers will be    131072 words long.
 Raffenetti 2 integral format.
 Two-electron integral symmetry is turned on.
    36 basis functions,    54 primitive gaussians,    37 cartesian basis functions
     5 alpha electrons        3 beta electrons
       nuclear repulsion energy         6.1550621256 Hartrees.
 NAtoms=    3 NActive=    3 NUniq=    2 SFac= 1.69D+00 NAtFMM=   80 NAOKFM=F Big=F
 One-electron integrals computed using PRISM.
 NBasis=    36 RedAO= T  NBF=    17     2     6    11
 NBsUse=    36 1.00D-06 NBFU=    17     2     6    11
 Initial guess read from the checkpoint file:  [CH2]-T.chk
 B after Tr=     0.000000    0.000000    0.000000
         Rot=    0.000000    0.000000    0.000000    1.000000 Ang= 180.00 deg.
 Initial guess orbital symmetries:
 Alpha Orbitals:
       Occupied  (A1) (A1) (B2) (A1) (B1)
       Virtual   (A1) (B2) (A1) (B1) (B2) (A1) (A1) (B2) (A1) (B2)
                 (B1) (A1) (B2) (A1) (A2) (A1) (B1) (B2) (A1) (B1)
                 (B2) (A1) (A2) (B2) (B2) (A1) (A1) (B1) (A1) (B2)
                 (A1)
 Beta  Orbitals:
       Occupied  (A1) (A1) (B2)
       Virtual   (A1) (B1) (A1) (B2) (A1) (B2) (A1) (B1) (A1) (B2)
                 (A1) (B2) (B1) (A1) (B2) (A1) (A2) (A1) (B1) (B2)
                 (A1) (B1) (B2) (A1) (A2) (B2) (A1) (B2) (A1) (B1)
                 (A1) (B2) (A1)
 Initial guess <Sx>= 0.0000 <Sy>= 0.0000 <Sz>= 1.0000 <S**2>= 2.0063 S= 1.0021
 Requested convergence on RMS density matrix=1.00D-08 within 128 cycles.
 Requested convergence on MAX density matrix=1.00D-06.
 Requested convergence on             energy=1.00D-06.
 No special actions if energy rises.
 Keep R1 and R2 ints in memory in canonical form, NReq=1403417.
 SCF Done:  E(UM062X) =  -39.1419472588     A.U. after    1 cycles
             Convg  =    0.4490D-09             -V/T =  2.0037
 <Sx>= 0.0000 <Sy>= 0.0000 <Sz>= 1.0000 <S**2>= 2.0063 S= 1.0021
 <L.S>= 0.000000000000E+00
 Annihilation of the first spin contaminant:
 S**2 before annihilation     2.0063,   after     2.0000
 Range of M.O.s used for correlation:     1    36
 NBasis=    36 NAE=     5 NBE=     3 NFC=     0 NFV=     0
 NROrb=     36 NOA=     5 NOB=     3 NVA=    31 NVB=    33
 Symmetrizing basis deriv contribution to polar:
 IMax=3 JMax=2 DiffMx= 0.00D+00
 G2DrvN: will do     4 centers at a time, making    1 passes doing MaxLOS=2.
 Calling FoFCou, ICntrl=  3107 FMM=F I1Cent=   0 AccDes= 0.00D+00.
 FoFDir/FoFCou used for L=0 through L=2.
 End of G2Drv Frequency-dependent properties file   721 does not exist.
 End of G2Drv Frequency-dependent properties file   722 does not exist.
          IDoAtm=111
          Differentiating once with respect to electric field.
                with respect to dipole field.
          Differentiating once with respect to nuclear coordinates.
          Keep R1 and R2 ints in memory in canonical form, NReq=1316278.
          There are     9 degrees of freedom in the 1st order CPHF.  IDoFFX=4.
      9 vectors produced by pass  0 Test12= 2.82D-15 1.11D-08 XBig12= 8.97D+00 1.74D+00.
 AX will form     9 AO Fock derivatives at one time.
      9 vectors produced by pass  1 Test12= 2.82D-15 1.11D-08 XBig12= 4.54D-01 2.81D-01.
      9 vectors produced by pass  2 Test12= 2.82D-15 1.11D-08 XBig12= 5.63D-03 2.52D-02.
      9 vectors produced by pass  3 Test12= 2.82D-15 1.11D-08 XBig12= 3.62D-05 1.91D-03.
      9 vectors produced by pass  4 Test12= 2.82D-15 1.11D-08 XBig12= 7.21D-07 3.02D-04.
      9 vectors produced by pass  5 Test12= 2.82D-15 1.11D-08 XBig12= 3.82D-09 1.86D-05.
      8 vectors produced by pass  6 Test12= 2.82D-15 1.11D-08 XBig12= 2.50D-11 1.39D-06.
      3 vectors produced by pass  7 Test12= 2.82D-15 1.11D-08 XBig12= 1.87D-13 1.20D-07.
      1 vectors produced by pass  8 Test12= 2.82D-15 1.11D-08 XBig12= 1.83D-15 1.18D-08.
 Inverted reduced A of dimension    66 with in-core refinement.
 Isotropic polarizability for W=    0.000000       10.67 Bohr**3.
 End of Minotr Frequency-dependent properties file   721 does not exist.
 End of Minotr Frequency-dependent properties file   722 does not exist.

 **********************************************************************

            Population analysis using the SCF density.

 **********************************************************************

 Orbital symmetries:
 Alpha Orbitals:
       Occupied  (A1) (A1) (B2) (A1) (B1)
       Virtual   (A1) (B2) (A1) (B1) (B2) (A1) (A1) (B2) (A1) (B2)
                 (B1) (A1) (B2) (A1) (A2) (A1) (B1) (B2) (A1) (B1)
                 (B2) (A1) (A2) (B2) (B2) (A1) (A1) (B1) (A1) (B2)
                 (A1)
 Beta  Orbitals:
       Occupied  (A1) (A1) (B2)
       Virtual   (A1) (B1) (A1) (B2) (A1) (B2) (A1) (B1) (A1) (B2)
                 (A1) (B2) (B1) (A1) (B2) (A1) (A2) (A1) (B1) (B2)
                 (A1) (B1) (B2) (A1) (A2) (B2) (A1) (B2) (A1) (B1)
                 (A1) (B2) (A1)
 The electronic state is 3-B1.
 Alpha  occ. eigenvalues --  -10.57315  -0.76745  -0.52584  -0.34310  -0.30442
 Alpha virt. eigenvalues --    0.00533   0.02901   0.08136   0.08743   0.12572
 Alpha virt. eigenvalues --    0.13976   0.17589   0.22739   0.45799   0.51675
 Alpha virt. eigenvalues --    0.56987   0.57984   0.70076   0.79365   1.06119
 Alpha virt. eigenvalues --    1.22697   1.25173   1.35049   1.52810   1.71799
 Alpha virt. eigenvalues --    1.82170   1.91312   2.03658   2.40803   2.53640
 Alpha virt. eigenvalues --    2.58378   2.68015   2.75399   2.93093   3.68003
 Alpha virt. eigenvalues --   23.87533
  Beta  occ. eigenvalues --  -10.55496  -0.67861  -0.50491
  Beta virt. eigenvalues --   -0.06164  -0.03529   0.01956   0.04360   0.09774
  Beta virt. eigenvalues --    0.12342   0.14351   0.14766   0.20360   0.23925
  Beta virt. eigenvalues --    0.47938   0.51008   0.59077   0.59877   0.77968
  Beta virt. eigenvalues --    0.82946   1.19397   1.34255   1.36571   1.44568
  Beta virt. eigenvalues --    1.59249   1.77426   1.86020   1.95256   2.07663
  Beta virt. eigenvalues --    2.48715   2.63010   2.72406   2.80305   2.80631
  Beta virt. eigenvalues --    3.16833   3.84023  23.90621
          Condensed to atoms (all electrons):
              1          2          3
     1  C    5.580282   0.371012   0.371012
     2  H    0.371012   0.501213  -0.033377
     3  H    0.371012  -0.033377   0.501213
 Mulliken atomic charges:
              1
     1  C   -0.322305
     2  H    0.161153
     3  H    0.161153
 Sum of Mulliken atomic charges =   0.00000
 Mulliken charges with hydrogens summed into heavy atoms:
              1
     1  C    0.000000
 Sum of Mulliken charges with hydrogens summed into heavy atoms =   0.00000
          Atomic-Atomic Spin Densities.
              1          2          3
     1  C    2.109593  -0.028404  -0.028404
     2  H   -0.028404  -0.005524   0.007535
     3  H   -0.028404   0.007535  -0.005524
 Mulliken atomic spin densities:
              1
     1  C    2.052785
     2  H   -0.026393
     3  H   -0.026393
 Sum of Mulliken atomic spin densities =   2.00000
 APT atomic charges:
              1
     1  C   -0.192579
     2  H    0.096290
     3  H    0.096290
 Sum of APT charges=   0.00000
 APT Atomic charges with hydrogens summed into heavy atoms:
              1
     1  C    0.000000
     2  H    0.000000
     3  H    0.000000
 Sum of APT charges=   0.00000
 Electronic spatial extent (au):  <R**2>=             24.4552
 Charge=              0.0000 electrons
 Dipole moment (field-independent basis, Debye):
    X=              0.0000    Y=              0.0000    Z=             -0.6823  Tot=              0.6823
 Quadrupole moment (field-independent basis, Debye-Ang):
   XX=             -8.3955   YY=             -5.8975   ZZ=             -7.8476
   XY=              0.0000   XZ=              0.0000   YZ=              0.0000
 Traceless Quadrupole moment (field-independent basis, Debye-Ang):
   XX=             -1.0153   YY=              1.4827   ZZ=             -0.4674
   XY=              0.0000   XZ=              0.0000   YZ=              0.0000
 Octapole moment (field-independent basis, Debye-Ang**2):
  XXX=              0.0000  YYY=              0.0000  ZZZ=             -1.1816  XYY=              0.0000
  XXY=              0.0000  XXZ=             -0.4087  XZZ=              0.0000  YZZ=              0.0000
  YYZ=             -1.0914  XYZ=              0.0000
 Hexadecapole moment (field-independent basis, Debye-Ang**3):
 XXXX=            -11.1659 YYYY=            -13.6090 ZZZZ=            -11.2797 XXXY=              0.0000
 XXXZ=              0.0000 YYYX=              0.0000 YYYZ=              0.0000 ZZZX=              0.0000
 ZZZY=              0.0000 XXYY=             -4.7041 XXZZ=             -3.7539 YYZZ=             -4.3506
 XXYZ=              0.0000 YYXZ=              0.0000 ZZXY=              0.0000
 N-N= 6.155062125591D+00 E-N=-1.488798594243D+02  KE= 5.722312597276D+01
 Symmetry A1   KE= 5.306760988056D+01
 Symmetry A2   KE= 1.981891878362D-34
 Symmetry B1   KE= 1.165662105312D+00
 Symmetry B2   KE= 2.989853986881D+00
  Exact polarizability:   9.795   0.000  12.950   0.000   0.000   9.261
 Approx polarizability:   8.512   0.000  12.300   0.000   0.000   8.635
                          Isotropic Fermi Contact Couplings
        Atom                 a.u.       MegaHertz       Gauss      10(-4) cm-1
     1  C(13)              0.59380     333.77371     119.09876     111.33493
     2  H(1)              -0.00473     -10.56738      -3.77070      -3.52490
     3  H(1)              -0.00473     -10.56738      -3.77070      -3.52490
 --------------------------------------------------------
       Center         ----  Spin Dipole Couplings  ----
                      3XX-RR        3YY-RR        3ZZ-RR
 --------------------------------------------------------
     1   Atom        0.676036     -1.086376      0.410340
     2   Atom       -0.063864      0.115892     -0.052028
     3   Atom       -0.063864      0.115892     -0.052028
 --------------------------------------------------------
                        XY            XZ            YZ
 --------------------------------------------------------
     1   Atom        0.000000      0.000000      0.000000
     2   Atom        0.000000      0.000000     -0.083412
     3   Atom        0.000000      0.000000      0.083412
 --------------------------------------------------------


 ---------------------------------------------------------------------------------
              Anisotropic Spin Dipole Couplings in Principal Axis System
 ---------------------------------------------------------------------------------

       Atom             a.u.   MegaHertz   Gauss  10(-4) cm-1        Axes

              Baa    -1.0864  -145.781   -52.018   -48.627  0.0000  1.0000  0.0000
     1 C(13)  Bbb     0.4103    55.064    19.648    18.367  0.0000  0.0000  1.0000
              Bcc     0.6760    90.718    32.370    30.260  1.0000  0.0000  0.0000
 
              Baa    -0.0864   -46.109   -16.453   -15.380  0.0000  0.3812  0.9245
     2 H(1)   Bbb    -0.0639   -34.075   -12.159   -11.366  1.0000  0.0000  0.0000
              Bcc     0.1503    80.184    28.611    26.746  0.0000  0.9245 -0.3812
 
              Baa    -0.0864   -46.109   -16.453   -15.380  0.0000 -0.3812  0.9245
     3 H(1)   Bbb    -0.0639   -34.075   -12.159   -11.366  1.0000  0.0000  0.0000
              Bcc     0.1503    80.184    28.611    26.746  0.0000  0.9245  0.3812
 

 ---------------------------------------------------------------------------------

 Calling FoFJK, ICntrl=    100127 FMM=F ISym2X=1 I1Cent= 0 IOpClX= 1 NMat=1 NMatS=1 NMatT=0.
 Full mass-weighted force constant matrix:
 Low frequencies --- -286.6934 -205.2636  -78.4232   -0.0007   -0.0002   -0.0001
 Low frequencies --- 1099.4595 3205.4180 3428.8876
 Diagonal vibrational polarizability:
        0.0000000       0.0022164       0.3233146

 rotorrotorrotorrotorrotorrotorrotorrotorrotorrotorrotor

           Hindered Internal Rotation Analysis

 rotorrotorrotorrotorrotorrotorrotorrotorrotorrotorrotor

 Internal coordinate list sorted
 Checking for planar centers
 Checking for ring deformation
 Checking reduced barrier height
 Cut-off : V/RT =     33.756
 Number of internal rotation degrees of freedom =             0
 No hindered rotor corrections are necessary.

 Harmonic frequencies (cm**-1), IR intensities (KM/Mole), Raman scattering
 activities (A**4/AMU), depolarization ratios for plane and unpolarized
 incident light, reduced masses (AMU), force constants (mDyne/A),
 and normal coordinates:
                     1                      2                      3
                    ?A                     A1                     ?B
 Frequencies --  1099.4595              3205.4180              3428.8825
 Red. masses --     1.1357                 1.0275                 1.1382
 Frc consts  --     0.8089                 6.2199                 7.8842
 IR Inten    --    14.3895                 1.1327                 0.9683
  Atom  AN      X      Y      Z        X      Y      Z        X      Y      Z
     1   6     0.00   0.00   0.11     0.00   0.00   0.04     0.00   0.12   0.00
     2   1     0.00  -0.30  -0.68     0.00   0.67  -0.26     0.00  -0.69   0.29
     3   1     0.00   0.30  -0.68     0.00  -0.67  -0.26     0.00  -0.69  -0.29

 -------------------
 - Thermochemistry -
 -------------------
 Temperature   298.150 Kelvin.  Pressure   0.987 Atm.
 Atom     1 has atomic number  6 and mass  12.00000
 Atom     2 has atomic number  1 and mass   1.00783
 Atom     3 has atomic number  1 and mass   1.00783
 Molecular mass:    14.01565 amu.
 Principal axes and moments of inertia in atomic units:
                           1         2         3
     Eigenvalues --     1.07069   7.11886   8.18954
           X            0.00000   0.00000   1.00000
           Y            1.00000   0.00000   0.00000
           Z            0.00000   1.00000   0.00000
 This molecule is an asymmetric top.
 Rotational symmetry number  2.
 Rotational temperatures (Kelvin)     80.89560    12.16682    10.57615
 Rotational constants (GHZ):        1685.59285   253.51566   220.37146
 Zero-point vibrational energy      46258.2 (Joules/Mol)
                                   11.05596 (Kcal/Mol)
 Vibrational temperatures:   1581.88  4611.88  4933.39
          (Kelvin)
 
 Zero-point correction=                           0.017619 (Hartree/Particle)
 Thermal correction to Energy=                    0.020476
 Thermal correction to Enthalpy=                  0.021421
 Thermal correction to Gibbs Free Energy=        -0.000752
 Sum of electronic and zero-point Energies=            -39.124328
 Sum of electronic and thermal Energies=               -39.121471
 Sum of electronic and thermal Enthalpies=             -39.120527
 Sum of electronic and thermal Free Energies=          -39.142699
 
                     E (Thermal)             CV                S
                      KCal/Mol        Cal/Mol-Kelvin    Cal/Mol-Kelvin
 Total                   12.849              6.242             46.666
 Electronic               0.000              0.000              2.183
 Translational            0.889              2.981             33.887
 Rotational               0.889              2.981             10.533
 Vibrational             11.072              0.281              0.062
                       Q            Log10(Q)             Ln(Q)
 Total Bot       0.221712D+01          0.345789          0.796208
 Total V=0       0.281746D+09          8.449858         19.456517
 Vib (Bot)       0.790846D-08         -8.101908        -18.655332
 Vib (V=0)       0.100499D+01          0.002161          0.004976
 Electronic      0.300000D+01          0.477121          1.098612
 Translational   0.208974D+07          6.320093         14.552552
 Rotational      0.447180D+02          1.650482          3.800376
 ***** Axes restored to original set *****
 -------------------------------------------------------------------
 Center     Atomic                   Forces (Hartrees/Bohr)
 Number     Number              X              Y              Z
 -------------------------------------------------------------------
      1        6           0.000000000   -0.000024123    0.000000000
      2        1          -0.000017734    0.000012061    0.000000000
      3        1           0.000017734    0.000012062    0.000000000
 -------------------------------------------------------------------
 Cartesian Forces:  Max     0.000024123 RMS     0.000012918

 GradGradGradGradGradGradGradGradGradGradGradGradGradGradGradGradGradGrad
 Berny optimization.
 Internal  Forces:  Max     0.000021018 RMS     0.000017881
 Search for a local minimum.
 Step number   1 out of a maximum of    2
 All quantities printed in internal units (Hartrees-Bohrs-Radians)
 Second derivative matrix not updated -- analytic derivatives used.
 The second derivative matrix:
                          R1        R2        A1
           R1           0.38764
           R2          -0.00434   0.38764
           A1           0.01369   0.01369   0.08474
     Eigenvalues ---    0.08349   0.38456   0.39198
 Angle between quadratic step and forces=  39.19 degrees.
 Linear search not attempted -- first point.
 Iteration  1 RMS(Cart)=  0.00006495 RMS(Int)=  0.00000000
 Iteration  2 RMS(Cart)=  0.00000000 RMS(Int)=  0.00000000
 ClnCor:  largest displacement from symmetrization is 4.61D-14 for atom     3.
 Variable       Old X    -DE/DX   Delta X   Delta X   Delta X     New X
                                 (Linear)    (Quad)   (Total)
    R1        2.03770  -0.00002   0.00000  -0.00006  -0.00006   2.03764
    R2        2.03770  -0.00002   0.00000  -0.00006  -0.00006   2.03764
    A1        2.34783   0.00001   0.00000   0.00012   0.00012   2.34795
         Item               Value     Threshold  Converged?
 Maximum Force            0.000021     0.000450     YES
 RMS     Force            0.000018     0.000300     YES
 Maximum Displacement     0.000092     0.001800     YES
 RMS     Displacement     0.000065     0.001200     YES
 Predicted change in Energy=-1.773582D-09
 Optimization completed.
    -- Stationary point found.
                           ----------------------------
                           !   Optimized Parameters   !
                           ! (Angstroms and Degrees)  !
 --------------------------                            --------------------------
 ! Name  Definition              Value          Derivative Info.                !
 --------------------------------------------------------------------------------
 ! R1    R(1,2)                  1.0783         -DE/DX =    0.0                 !
 ! R2    R(1,3)                  1.0783         -DE/DX =    0.0                 !
 ! A1    A(2,1,3)              134.5206         -DE/DX =    0.0                 !
 --------------------------------------------------------------------------------
 GradGradGradGradGradGradGradGradGradGradGradGradGradGradGradGradGradGrad

 1\1\GINC-LOCALHOST\Freq\UM062X\6-311++G(d,p)\C1H2(3)\ROOT\17-Mar-2022\
 0\\#N Geom=AllCheck Guess=TCheck SCRF=Check GenChk UM062X/6-311++G(d,p
 ) Freq\\[CH2]-T_1\\0,3\C,-0.000000362,0.104203,0.\H,0.994487,-0.312606
 ,0.\H,-0.9944848278,-0.3126129104,0.\\Version=EM64L-G09RevA.01\State=3
 -B1\HF=-39.1419473\S2=2.006297\S2-1=0.\S2A=2.000011\RMSD=4.490e-10\RMS
 F=1.292e-05\ZeroPoint=0.0176188\Thermal=0.0204764\Dipole=0.0000009,-0.
 2684287,0.\DipoleDeriv=-0.0840293,0.0000003,0.,0.0000003,-0.1646284,0.
 ,0.,0.,-0.3290798,0.0420144,0.010473,0.,0.0552069,0.0823144,0.,0.,0.,0
 .1645399,0.0420149,-0.0104733,0.,-0.0552072,0.082314,0.,0.,0.,0.164539
 9\Polar=12.950132,0.0000128,9.2607626,0.,0.,9.7954178\PG=C02V [C2(C1),
 SGV(H2)]\NImag=0\\0.66621120,0.00000174,0.16483189,0.,0.,-0.00040167,-
 0.33310648,0.11266883,0.,0.33741256,0.14090677,-0.08241506,0.,-0.12678
 774,0.07008384,0.,0.,0.00020083,0.,0.,-0.00166782,-0.33310472,-0.11267
 057,0.,-0.00430608,-0.01411903,0.,0.33741079,-0.14090851,-0.08241682,0
 .,0.01411891,0.01233123,0.,0.12678960,0.07008560,0.,0.,0.00020083,0.,0
 .,0.00146699,0.,0.,-0.00166782\\0.,0.00002412,0.,0.00001773,-0.0000120
 6,0.,-0.00001773,-0.00001206,0.\\\@


 ...THE PHYSICISTS HAVE MADE THEIR UNIVERSE, AND IF YOU DO NOT LIKE
 IT, YOU MUST MAKE YOUR OWN.
                               -- E. R. HARRISON IN "COSMOLOGY" (1980)
 Job cpu time:  0 days  0 hours  0 minutes 20.0 seconds.
 File lengths (MBytes):  RWF=      5 Int=      0 D2E=      0 Chk=      1 Scr=      1
 Normal termination of Gaussian 09 at Thu Mar 17 11:55:44 2022.
 Initial command:
 /software/g09/l1.exe /home/tmp/g16/Gau-3961194.inp -scrdir=/home/tmp/g16/
 Entering Link 1 = /software/g09/l1.exe PID=   3961462.
  
 Copyright (c) 1988,1990,1992,1993,1995,1998,2003,2009, Gaussian, Inc.
                  All Rights Reserved.
  
 This is part of the Gaussian(R) 09 program.  It is based on
 the Gaussian(R) 03 system (copyright 2003, Gaussian, Inc.),
 the Gaussian(R) 98 system (copyright 1998, Gaussian, Inc.),
 the Gaussian(R) 94 system (copyright 1995, Gaussian, Inc.),
 the Gaussian 92(TM) system (copyright 1992, Gaussian, Inc.),
 the Gaussian 90(TM) system (copyright 1990, Gaussian, Inc.),
 the Gaussian 88(TM) system (copyright 1988, Gaussian, Inc.),
 the Gaussian 86(TM) system (copyright 1986, Carnegie Mellon
 University), and the Gaussian 82(TM) system (copyright 1983,
 Carnegie Mellon University). Gaussian is a federally registered
 trademark of Gaussian, Inc.
  
 This software contains proprietary and confidential information,
 including trade secrets, belonging to Gaussian, Inc.
  
 This software is provided under written license and may be
 used, copied, transmitted, or stored only in accord with that
 written license.
  
 The following legend is applicable only to US Government
 contracts under FAR:
  
                    RESTRICTED RIGHTS LEGEND
  
 Use, reproduction and disclosure by the US Government is
 subject to restrictions as set forth in subparagraphs (a)
 and (c) of the Commercial Computer Software - Restricted
 Rights clause in FAR 52.227-19.
  
 Gaussian, Inc.
 340 Quinnipiac St., Bldg. 40, Wallingford CT 06492
  
  
 ---------------------------------------------------------------
 Warning -- This program may not be used in any manner that
 competes with the business of Gaussian, Inc. or will provide
 assistance to any competitor of Gaussian, Inc.  The licensee
 of this program is prohibited from giving any competitor of
 Gaussian, Inc. access to this program.  By using this program,
 the user acknowledges that Gaussian, Inc. is engaged in the
 business of creating and licensing software in the field of
 computational chemistry and represents and warrants to the
 licensee that it is not a competitor of Gaussian, Inc. and that
 it will not use this program in any manner prohibited above.
 ---------------------------------------------------------------
  

 Cite this work as:
 Gaussian 09, Revision A.01,
 M. J. Frisch, G. W. Trucks, H. B. Schlegel, G. E. Scuseria, 
 M. A. Robb, J. R. Cheeseman, G. Scalmani, V. Barone, B. Mennucci, 
 G. A. Petersson, H. Nakatsuji, M. Caricato, X. Li, H. P. Hratchian, 
 A. F. Izmaylov, J. Bloino, G. Zheng, J. L. Sonnenberg, M. Hada, 
 M. Ehara, K. Toyota, R. Fukuda, J. Hasegawa, M. Ishida, T. Nakajima, 
 Y. Honda, O. Kitao, H. Nakai, T. Vreven, J. A. Montgomery, Jr., 
 J. E. Peralta, F. Ogliaro, M. Bearpark, J. J. Heyd, E. Brothers, 
 K. N. Kudin, V. N. Staroverov, R. Kobayashi, J. Normand, 
 K. Raghavachari, A. Rendell, J. C. Burant, S. S. Iyengar, J. Tomasi, 
 M. Cossi, N. Rega, J. M. Millam, M. Klene, J. E. Knox, J. B. Cross, 
 V. Bakken, C. Adamo, J. Jaramillo, R. Gomperts, R. E. Stratmann, 
 O. Yazyev, A. J. Austin, R. Cammi, C. Pomelli, J. W. Ochterski, 
 R. L. Martin, K. Morokuma, V. G. Zakrzewski, G. A. Voth, 
 P. Salvador, J. J. Dannenberg, S. Dapprich, A. D. Daniels, 
 O. Farkas, J. B. Foresman, J. V. Ortiz, J. Cioslowski, 
 and D. J. Fox, Gaussian, Inc., Wallingford CT, 2009.
 
 ******************************************
 Gaussian 09:  EM64L-G09RevA.01  8-May-2009
                17-Mar-2022 
 ******************************************
 %chk=[CH2]-T.chk
 ----------------------------------------------------------------------
 # freq=(readfc,hinderedrotor) temp=200 press=0.987 geom=allcheck gue
 ss=read
 ----------------------------------------------------------------------
 1/18=20,29=7,38=1,111=200000,112=-986920/1;
 2/12=2,40=1/2;
 7/8=2001,25=11/16;
 99/5=2,8=20/99;
 ---------
 [CH2]-T_1
 ---------
 Redundant internal coordinates taken from checkpoint file:
 [CH2]-T.chk
 Charge =  0 Multiplicity = 3
 C,0,-0.000000362,0.104203,0.
 H,0,0.994487,-0.312606,0.
 H,0,-0.9944848278,-0.3126129104,0.
 Recover connectivity data from disk.
                          Input orientation:                          
 ---------------------------------------------------------------------
 Center     Atomic      Atomic             Coordinates (Angstroms)
 Number     Number       Type             X           Y           Z
 ---------------------------------------------------------------------
      1          6           0        0.000000    0.104203    0.000000
      2          1           0        0.994487   -0.312606    0.000000
      3          1           0       -0.994485   -0.312613    0.000000
 ---------------------------------------------------------------------
                    Distance matrix (angstroms):
                    1          2          3
     1  C    0.000000
     2  H    1.078302   0.000000
     3  H    1.078302   1.988972   0.000000
 Stoichiometry    CH2(3)
 Framework group  C2V[C2(C),SGV(H2)]
 Deg. of freedom     2
 Full point group                 C2V     NOp   4
 Largest Abelian subgroup         C2V     NOp   4
 Largest concise Abelian subgroup C2      NOp   2
                         Standard orientation:                         
 ---------------------------------------------------------------------
 Center     Atomic      Atomic             Coordinates (Angstroms)
 Number     Number       Type             X           Y           Z
 ---------------------------------------------------------------------
      1          6           0        0.000000    0.000000    0.104203
      2          1           0        0.000000    0.994486   -0.312609
      3          1           0        0.000000   -0.994486   -0.312609
 ---------------------------------------------------------------------
 Rotational constants (GHZ):   1685.5928522    253.5156563    220.3714626
 Electric field and nuclear coordinate derivatives read from checkpoint file.
 Rotating derivatives to standard orientation.
 Full mass-weighted force constant matrix:
 Low frequencies --- -286.6934 -205.2636  -78.4232   -0.0007   -0.0002   -0.0001
 Low frequencies --- 1099.4595 3205.4180 3428.8876
 Diagonal vibrational polarizability:
        0.0000000       0.0022164       0.3233146

 rotorrotorrotorrotorrotorrotorrotorrotorrotorrotorrotor

           Hindered Internal Rotation Analysis

 rotorrotorrotorrotorrotorrotorrotorrotorrotorrotorrotor

 Internal coordinate list sorted
 Checking for planar centers
 Checking for ring deformation
 Checking reduced barrier height
 Cut-off : V/RT =     33.756
 Number of internal rotation degrees of freedom =             0
 No hindered rotor corrections are necessary.

 Harmonic frequencies (cm**-1), IR intensities (KM/Mole), Raman scattering
 activities (A**4/AMU), depolarization ratios for plane and unpolarized
 incident light, reduced masses (AMU), force constants (mDyne/A),
 and normal coordinates:
                     1                      2                      3
                    ?A                     A1                     ?B
 Frequencies --  1099.4595              3205.4180              3428.8825
 Red. masses --     1.1357                 1.0275                 1.1382
 Frc consts  --     0.8089                 6.2199                 7.8842
 IR Inten    --    14.3895                 1.1327                 0.9683
  Atom  AN      X      Y      Z        X      Y      Z        X      Y      Z
     1   6     0.00   0.00   0.11     0.00   0.00   0.04     0.00   0.12   0.00
     2   1     0.00  -0.30  -0.68     0.00   0.67  -0.26     0.00  -0.69   0.29
     3   1     0.00   0.30  -0.68     0.00  -0.67  -0.26     0.00  -0.69  -0.29

 -------------------
 - Thermochemistry -
 -------------------
 Temperature   298.150 Kelvin.  Pressure   0.987 Atm.
 Atom     1 has atomic number  6 and mass  12.00000
 Atom     2 has atomic number  1 and mass   1.00783
 Atom     3 has atomic number  1 and mass   1.00783
 Molecular mass:    14.01565 amu.
 Principal axes and moments of inertia in atomic units:
                           1         2         3
     Eigenvalues --     1.07069   7.11886   8.18954
           X            0.00000   0.00000   1.00000
           Y            1.00000   0.00000   0.00000
           Z            0.00000   1.00000   0.00000
 This molecule is an asymmetric top.
 Rotational symmetry number  2.
 Rotational temperatures (Kelvin)     80.89560    12.16682    10.57615
 Rotational constants (GHZ):        1685.59285   253.51566   220.37146
 Zero-point vibrational energy      46258.2 (Joules/Mol)
                                   11.05596 (Kcal/Mol)
 Vibrational temperatures:   1581.88  4611.88  4933.39
          (Kelvin)
 
 Zero-point correction=                           0.017619 (Hartree/Particle)
 Thermal correction to Energy=                    0.020476
 Thermal correction to Enthalpy=                  0.021421
 Thermal correction to Gibbs Free Energy=        -0.000752
 Sum of electronic and zero-point Energies=            -39.124328
 Sum of electronic and thermal Energies=               -39.121471
 Sum of electronic and thermal Enthalpies=             -39.120527
 Sum of electronic and thermal Free Energies=          -39.142699
 
                     E (Thermal)             CV                S
                      KCal/Mol        Cal/Mol-Kelvin    Cal/Mol-Kelvin
 Total                   12.849              6.242             46.666
 Electronic               0.000              0.000              2.183
 Translational            0.889              2.981             33.887
 Rotational               0.889              2.981             10.533
 Vibrational             11.072              0.281              0.062
                       Q            Log10(Q)             Ln(Q)
 Total Bot       0.221712D+01          0.345789          0.796208
 Total V=0       0.281746D+09          8.449858         19.456517
 Vib (Bot)       0.790846D-08         -8.101908        -18.655332
 Vib (V=0)       0.100499D+01          0.002161          0.004976
 Electronic      0.300000D+01          0.477121          1.098612
 Translational   0.208974D+07          6.320093         14.552552
 Rotational      0.447180D+02          1.650482          3.800376
 ***** Axes restored to original set *****
 -------------------------------------------------------------------
 Center     Atomic                   Forces (Hartrees/Bohr)
 Number     Number              X              Y              Z
 -------------------------------------------------------------------
      1        6           0.000000000   -0.000024123    0.000000000
      2        1          -0.000017734    0.000012061    0.000000000
      3        1           0.000017734    0.000012062    0.000000000
 -------------------------------------------------------------------
 Cartesian Forces:  Max     0.000024123 RMS     0.000012918

 This type of calculation cannot be archived.


 ...THE PHYSICISTS HAVE MADE THEIR UNIVERSE, AND IF YOU DO NOT LIKE
 IT, YOU MUST MAKE YOUR OWN.
                               -- E. R. HARRISON IN "COSMOLOGY" (1980)
 Job cpu time:  0 days  0 hours  0 minutes  0.2 seconds.
 File lengths (MBytes):  RWF=      5 Int=      0 D2E=      0 Chk=      1 Scr=      1
 Normal termination of Gaussian 09 at Thu Mar 17 11:55:44 2022.
 Initial command:
 /software/g09/l1.exe /home/tmp/g16/Gau-3961194.inp -scrdir=/home/tmp/g16/
 Entering Link 1 = /software/g09/l1.exe PID=   3961463.
  
 Copyright (c) 1988,1990,1992,1993,1995,1998,2003,2009, Gaussian, Inc.
                  All Rights Reserved.
  
 This is part of the Gaussian(R) 09 program.  It is based on
 the Gaussian(R) 03 system (copyright 2003, Gaussian, Inc.),
 the Gaussian(R) 98 system (copyright 1998, Gaussian, Inc.),
 the Gaussian(R) 94 system (copyright 1995, Gaussian, Inc.),
 the Gaussian 92(TM) system (copyright 1992, Gaussian, Inc.),
 the Gaussian 90(TM) system (copyright 1990, Gaussian, Inc.),
 the Gaussian 88(TM) system (copyright 1988, Gaussian, Inc.),
 the Gaussian 86(TM) system (copyright 1986, Carnegie Mellon
 University), and the Gaussian 82(TM) system (copyright 1983,
 Carnegie Mellon University). Gaussian is a federally registered
 trademark of Gaussian, Inc.
  
 This software contains proprietary and confidential information,
 including trade secrets, belonging to Gaussian, Inc.
  
 This software is provided under written license and may be
 used, copied, transmitted, or stored only in accord with that
 written license.
  
 The following legend is applicable only to US Government
 contracts under FAR:
  
                    RESTRICTED RIGHTS LEGEND
  
 Use, reproduction and disclosure by the US Government is
 subject to restrictions as set forth in subparagraphs (a)
 and (c) of the Commercial Computer Software - Restricted
 Rights clause in FAR 52.227-19.
  
 Gaussian, Inc.
 340 Quinnipiac St., Bldg. 40, Wallingford CT 06492
  
  
 ---------------------------------------------------------------
 Warning -- This program may not be used in any manner that
 competes with the business of Gaussian, Inc. or will provide
 assistance to any competitor of Gaussian, Inc.  The licensee
 of this program is prohibited from giving any competitor of
 Gaussian, Inc. access to this program.  By using this program,
 the user acknowledges that Gaussian, Inc. is engaged in the
 business of creating and licensing software in the field of
 computational chemistry and represents and warrants to the
 licensee that it is not a competitor of Gaussian, Inc. and that
 it will not use this program in any manner prohibited above.
 ---------------------------------------------------------------
  

 Cite this work as:
 Gaussian 09, Revision A.01,
 M. J. Frisch, G. W. Trucks, H. B. Schlegel, G. E. Scuseria, 
 M. A. Robb, J. R. Cheeseman, G. Scalmani, V. Barone, B. Mennucci, 
 G. A. Petersson, H. Nakatsuji, M. Caricato, X. Li, H. P. Hratchian, 
 A. F. Izmaylov, J. Bloino, G. Zheng, J. L. Sonnenberg, M. Hada, 
 M. Ehara, K. Toyota, R. Fukuda, J. Hasegawa, M. Ishida, T. Nakajima, 
 Y. Honda, O. Kitao, H. Nakai, T. Vreven, J. A. Montgomery, Jr., 
 J. E. Peralta, F. Ogliaro, M. Bearpark, J. J. Heyd, E. Brothers, 
 K. N. Kudin, V. N. Staroverov, R. Kobayashi, J. Normand, 
 K. Raghavachari, A. Rendell, J. C. Burant, S. S. Iyengar, J. Tomasi, 
 M. Cossi, N. Rega, J. M. Millam, M. Klene, J. E. Knox, J. B. Cross, 
 V. Bakken, C. Adamo, J. Jaramillo, R. Gomperts, R. E. Stratmann, 
 O. Yazyev, A. J. Austin, R. Cammi, C. Pomelli, J. W. Ochterski, 
 R. L. Martin, K. Morokuma, V. G. Zakrzewski, G. A. Voth, 
 P. Salvador, J. J. Dannenberg, S. Dapprich, A. D. Daniels, 
 O. Farkas, J. B. Foresman, J. V. Ortiz, J. Cioslowski, 
 and D. J. Fox, Gaussian, Inc., Wallingford CT, 2009.
 
 ******************************************
 Gaussian 09:  EM64L-G09RevA.01  8-May-2009
                17-Mar-2022 
 ******************************************
 %chk=[CH2]-T.chk
 ----------------------------------------------------------------------
 # freq=(readfc,hinderedrotor) temp=250 press=0.987 geom=allcheck gue
 ss=read
 ----------------------------------------------------------------------
 1/18=20,29=7,38=1,111=250000,112=-986920/1;
 2/12=2,40=1/2;
 7/8=2001,25=11/16;
 99/5=2,8=20/99;
 ---------
 [CH2]-T_1
 ---------
 Redundant internal coordinates taken from checkpoint file:
 [CH2]-T.chk
 Charge =  0 Multiplicity = 3
 C,0,-0.000000362,0.104203,0.
 H,0,0.994487,-0.312606,0.
 H,0,-0.9944848278,-0.3126129104,0.
 Recover connectivity data from disk.
                          Input orientation:                          
 ---------------------------------------------------------------------
 Center     Atomic      Atomic             Coordinates (Angstroms)
 Number     Number       Type             X           Y           Z
 ---------------------------------------------------------------------
      1          6           0        0.000000    0.104203    0.000000
      2          1           0        0.994487   -0.312606    0.000000
      3          1           0       -0.994485   -0.312613    0.000000
 ---------------------------------------------------------------------
                    Distance matrix (angstroms):
                    1          2          3
     1  C    0.000000
     2  H    1.078302   0.000000
     3  H    1.078302   1.988972   0.000000
 Stoichiometry    CH2(3)
 Framework group  C2V[C2(C),SGV(H2)]
 Deg. of freedom     2
 Full point group                 C2V     NOp   4
 Largest Abelian subgroup         C2V     NOp   4
 Largest concise Abelian subgroup C2      NOp   2
                         Standard orientation:                         
 ---------------------------------------------------------------------
 Center     Atomic      Atomic             Coordinates (Angstroms)
 Number     Number       Type             X           Y           Z
 ---------------------------------------------------------------------
      1          6           0        0.000000    0.000000    0.104203
      2          1           0        0.000000    0.994486   -0.312609
      3          1           0        0.000000   -0.994486   -0.312609
 ---------------------------------------------------------------------
 Rotational constants (GHZ):   1685.5928522    253.5156563    220.3714626
 Electric field and nuclear coordinate derivatives read from checkpoint file.
 Rotating derivatives to standard orientation.
 Full mass-weighted force constant matrix:
 Low frequencies --- -286.6934 -205.2636  -78.4232   -0.0007   -0.0002   -0.0001
 Low frequencies --- 1099.4595 3205.4180 3428.8876
 Diagonal vibrational polarizability:
        0.0000000       0.0022164       0.3233146

 rotorrotorrotorrotorrotorrotorrotorrotorrotorrotorrotor

           Hindered Internal Rotation Analysis

 rotorrotorrotorrotorrotorrotorrotorrotorrotorrotorrotor

 Internal coordinate list sorted
 Checking for planar centers
 Checking for ring deformation
 Checking reduced barrier height
 Cut-off : V/RT =     33.756
 Number of internal rotation degrees of freedom =             0
 No hindered rotor corrections are necessary.

 Harmonic frequencies (cm**-1), IR intensities (KM/Mole), Raman scattering
 activities (A**4/AMU), depolarization ratios for plane and unpolarized
 incident light, reduced masses (AMU), force constants (mDyne/A),
 and normal coordinates:
                     1                      2                      3
                    ?A                     A1                     ?B
 Frequencies --  1099.4595              3205.4180              3428.8825
 Red. masses --     1.1357                 1.0275                 1.1382
 Frc consts  --     0.8089                 6.2199                 7.8842
 IR Inten    --    14.3895                 1.1327                 0.9683
  Atom  AN      X      Y      Z        X      Y      Z        X      Y      Z
     1   6     0.00   0.00   0.11     0.00   0.00   0.04     0.00   0.12   0.00
     2   1     0.00  -0.30  -0.68     0.00   0.67  -0.26     0.00  -0.69   0.29
     3   1     0.00   0.30  -0.68     0.00  -0.67  -0.26     0.00  -0.69  -0.29

 -------------------
 - Thermochemistry -
 -------------------
 Temperature   298.150 Kelvin.  Pressure   0.987 Atm.
 Atom     1 has atomic number  6 and mass  12.00000
 Atom     2 has atomic number  1 and mass   1.00783
 Atom     3 has atomic number  1 and mass   1.00783
 Molecular mass:    14.01565 amu.
 Principal axes and moments of inertia in atomic units:
                           1         2         3
     Eigenvalues --     1.07069   7.11886   8.18954
           X            0.00000   0.00000   1.00000
           Y            1.00000   0.00000   0.00000
           Z            0.00000   1.00000   0.00000
 This molecule is an asymmetric top.
 Rotational symmetry number  2.
 Rotational temperatures (Kelvin)     80.89560    12.16682    10.57615
 Rotational constants (GHZ):        1685.59285   253.51566   220.37146
 Zero-point vibrational energy      46258.2 (Joules/Mol)
                                   11.05596 (Kcal/Mol)
 Vibrational temperatures:   1581.88  4611.88  4933.39
          (Kelvin)
 
 Zero-point correction=                           0.017619 (Hartree/Particle)
 Thermal correction to Energy=                    0.020476
 Thermal correction to Enthalpy=                  0.021421
 Thermal correction to Gibbs Free Energy=        -0.000752
 Sum of electronic and zero-point Energies=            -39.124328
 Sum of electronic and thermal Energies=               -39.121471
 Sum of electronic and thermal Enthalpies=             -39.120527
 Sum of electronic and thermal Free Energies=          -39.142699
 
                     E (Thermal)             CV                S
                      KCal/Mol        Cal/Mol-Kelvin    Cal/Mol-Kelvin
 Total                   12.849              6.242             46.666
 Electronic               0.000              0.000              2.183
 Translational            0.889              2.981             33.887
 Rotational               0.889              2.981             10.533
 Vibrational             11.072              0.281              0.062
                       Q            Log10(Q)             Ln(Q)
 Total Bot       0.221712D+01          0.345789          0.796208
 Total V=0       0.281746D+09          8.449858         19.456517
 Vib (Bot)       0.790846D-08         -8.101908        -18.655332
 Vib (V=0)       0.100499D+01          0.002161          0.004976
 Electronic      0.300000D+01          0.477121          1.098612
 Translational   0.208974D+07          6.320093         14.552552
 Rotational      0.447180D+02          1.650482          3.800376
 ***** Axes restored to original set *****
 -------------------------------------------------------------------
 Center     Atomic                   Forces (Hartrees/Bohr)
 Number     Number              X              Y              Z
 -------------------------------------------------------------------
      1        6           0.000000000   -0.000024123    0.000000000
      2        1          -0.000017734    0.000012061    0.000000000
      3        1           0.000017734    0.000012062    0.000000000
 -------------------------------------------------------------------
 Cartesian Forces:  Max     0.000024123 RMS     0.000012918

 This type of calculation cannot be archived.


 ...THE PHYSICISTS HAVE MADE THEIR UNIVERSE, AND IF YOU DO NOT LIKE
 IT, YOU MUST MAKE YOUR OWN.
                               -- E. R. HARRISON IN "COSMOLOGY" (1980)
 Job cpu time:  0 days  0 hours  0 minutes  0.1 seconds.
 File lengths (MBytes):  RWF=      5 Int=      0 D2E=      0 Chk=      1 Scr=      1
 Normal termination of Gaussian 09 at Thu Mar 17 11:55:44 2022.
 Initial command:
 /software/g09/l1.exe /home/tmp/g16/Gau-3961194.inp -scrdir=/home/tmp/g16/
 Entering Link 1 = /software/g09/l1.exe PID=   3961464.
  
 Copyright (c) 1988,1990,1992,1993,1995,1998,2003,2009, Gaussian, Inc.
                  All Rights Reserved.
  
 This is part of the Gaussian(R) 09 program.  It is based on
 the Gaussian(R) 03 system (copyright 2003, Gaussian, Inc.),
 the Gaussian(R) 98 system (copyright 1998, Gaussian, Inc.),
 the Gaussian(R) 94 system (copyright 1995, Gaussian, Inc.),
 the Gaussian 92(TM) system (copyright 1992, Gaussian, Inc.),
 the Gaussian 90(TM) system (copyright 1990, Gaussian, Inc.),
 the Gaussian 88(TM) system (copyright 1988, Gaussian, Inc.),
 the Gaussian 86(TM) system (copyright 1986, Carnegie Mellon
 University), and the Gaussian 82(TM) system (copyright 1983,
 Carnegie Mellon University). Gaussian is a federally registered
 trademark of Gaussian, Inc.
  
 This software contains proprietary and confidential information,
 including trade secrets, belonging to Gaussian, Inc.
  
 This software is provided under written license and may be
 used, copied, transmitted, or stored only in accord with that
 written license.
  
 The following legend is applicable only to US Government
 contracts under FAR:
  
                    RESTRICTED RIGHTS LEGEND
  
 Use, reproduction and disclosure by the US Government is
 subject to restrictions as set forth in subparagraphs (a)
 and (c) of the Commercial Computer Software - Restricted
 Rights clause in FAR 52.227-19.
  
 Gaussian, Inc.
 340 Quinnipiac St., Bldg. 40, Wallingford CT 06492
  
  
 ---------------------------------------------------------------
 Warning -- This program may not be used in any manner that
 competes with the business of Gaussian, Inc. or will provide
 assistance to any competitor of Gaussian, Inc.  The licensee
 of this program is prohibited from giving any competitor of
 Gaussian, Inc. access to this program.  By using this program,
 the user acknowledges that Gaussian, Inc. is engaged in the
 business of creating and licensing software in the field of
 computational chemistry and represents and warrants to the
 licensee that it is not a competitor of Gaussian, Inc. and that
 it will not use this program in any manner prohibited above.
 ---------------------------------------------------------------
  

 Cite this work as:
 Gaussian 09, Revision A.01,
 M. J. Frisch, G. W. Trucks, H. B. Schlegel, G. E. Scuseria, 
 M. A. Robb, J. R. Cheeseman, G. Scalmani, V. Barone, B. Mennucci, 
 G. A. Petersson, H. Nakatsuji, M. Caricato, X. Li, H. P. Hratchian, 
 A. F. Izmaylov, J. Bloino, G. Zheng, J. L. Sonnenberg, M. Hada, 
 M. Ehara, K. Toyota, R. Fukuda, J. Hasegawa, M. Ishida, T. Nakajima, 
 Y. Honda, O. Kitao, H. Nakai, T. Vreven, J. A. Montgomery, Jr., 
 J. E. Peralta, F. Ogliaro, M. Bearpark, J. J. Heyd, E. Brothers, 
 K. N. Kudin, V. N. Staroverov, R. Kobayashi, J. Normand, 
 K. Raghavachari, A. Rendell, J. C. Burant, S. S. Iyengar, J. Tomasi, 
 M. Cossi, N. Rega, J. M. Millam, M. Klene, J. E. Knox, J. B. Cross, 
 V. Bakken, C. Adamo, J. Jaramillo, R. Gomperts, R. E. Stratmann, 
 O. Yazyev, A. J. Austin, R. Cammi, C. Pomelli, J. W. Ochterski, 
 R. L. Martin, K. Morokuma, V. G. Zakrzewski, G. A. Voth, 
 P. Salvador, J. J. Dannenberg, S. Dapprich, A. D. Daniels, 
 O. Farkas, J. B. Foresman, J. V. Ortiz, J. Cioslowski, 
 and D. J. Fox, Gaussian, Inc., Wallingford CT, 2009.
 
 ******************************************
 Gaussian 09:  EM64L-G09RevA.01  8-May-2009
                17-Mar-2022 
 ******************************************
 %chk=[CH2]-T.chk
 ----------------------------------------------------------------------
 # freq=(readfc,hinderedrotor) temp=300 press=0.987 geom=allcheck gue
 ss=read
 ----------------------------------------------------------------------
 1/18=20,29=7,38=1,111=300000,112=-986920/1;
 2/12=2,40=1/2;
 7/8=2001,25=11/16;
 99/5=2,8=20/99;
 ---------
 [CH2]-T_1
 ---------
 Redundant internal coordinates taken from checkpoint file:
 [CH2]-T.chk
 Charge =  0 Multiplicity = 3
 C,0,-0.000000362,0.104203,0.
 H,0,0.994487,-0.312606,0.
 H,0,-0.9944848278,-0.3126129104,0.
 Recover connectivity data from disk.
                          Input orientation:                          
 ---------------------------------------------------------------------
 Center     Atomic      Atomic             Coordinates (Angstroms)
 Number     Number       Type             X           Y           Z
 ---------------------------------------------------------------------
      1          6           0        0.000000    0.104203    0.000000
      2          1           0        0.994487   -0.312606    0.000000
      3          1           0       -0.994485   -0.312613    0.000000
 ---------------------------------------------------------------------
                    Distance matrix (angstroms):
                    1          2          3
     1  C    0.000000
     2  H    1.078302   0.000000
     3  H    1.078302   1.988972   0.000000
 Stoichiometry    CH2(3)
 Framework group  C2V[C2(C),SGV(H2)]
 Deg. of freedom     2
 Full point group                 C2V     NOp   4
 Largest Abelian subgroup         C2V     NOp   4
 Largest concise Abelian subgroup C2      NOp   2
                         Standard orientation:                         
 ---------------------------------------------------------------------
 Center     Atomic      Atomic             Coordinates (Angstroms)
 Number     Number       Type             X           Y           Z
 ---------------------------------------------------------------------
      1          6           0        0.000000    0.000000    0.104203
      2          1           0        0.000000    0.994486   -0.312609
      3          1           0        0.000000   -0.994486   -0.312609
 ---------------------------------------------------------------------
 Rotational constants (GHZ):   1685.5928522    253.5156563    220.3714626
 Electric field and nuclear coordinate derivatives read from checkpoint file.
 Rotating derivatives to standard orientation.
 Full mass-weighted force constant matrix:
 Low frequencies --- -286.6934 -205.2636  -78.4232   -0.0007   -0.0002   -0.0001
 Low frequencies --- 1099.4595 3205.4180 3428.8876
 Diagonal vibrational polarizability:
        0.0000000       0.0022164       0.3233146

 rotorrotorrotorrotorrotorrotorrotorrotorrotorrotorrotor

           Hindered Internal Rotation Analysis

 rotorrotorrotorrotorrotorrotorrotorrotorrotorrotorrotor

 Internal coordinate list sorted
 Checking for planar centers
 Checking for ring deformation
 Checking reduced barrier height
 Cut-off : V/RT =     33.756
 Number of internal rotation degrees of freedom =             0
 No hindered rotor corrections are necessary.

 Harmonic frequencies (cm**-1), IR intensities (KM/Mole), Raman scattering
 activities (A**4/AMU), depolarization ratios for plane and unpolarized
 incident light, reduced masses (AMU), force constants (mDyne/A),
 and normal coordinates:
                     1                      2                      3
                    ?A                     A1                     ?B
 Frequencies --  1099.4595              3205.4180              3428.8825
 Red. masses --     1.1357                 1.0275                 1.1382
 Frc consts  --     0.8089                 6.2199                 7.8842
 IR Inten    --    14.3895                 1.1327                 0.9683
  Atom  AN      X      Y      Z        X      Y      Z        X      Y      Z
     1   6     0.00   0.00   0.11     0.00   0.00   0.04     0.00   0.12   0.00
     2   1     0.00  -0.30  -0.68     0.00   0.67  -0.26     0.00  -0.69   0.29
     3   1     0.00   0.30  -0.68     0.00  -0.67  -0.26     0.00  -0.69  -0.29

 -------------------
 - Thermochemistry -
 -------------------
 Temperature   298.150 Kelvin.  Pressure   0.987 Atm.
 Atom     1 has atomic number  6 and mass  12.00000
 Atom     2 has atomic number  1 and mass   1.00783
 Atom     3 has atomic number  1 and mass   1.00783
 Molecular mass:    14.01565 amu.
 Principal axes and moments of inertia in atomic units:
                           1         2         3
[...]
 P. Salvador, J. J. Dannenberg, S. Dapprich, A. D. Daniels, 
 O. Farkas, J. B. Foresman, J. V. Ortiz, J. Cioslowski, 
 and D. J. Fox, Gaussian, Inc., Wallingford CT, 2009.
 
 ******************************************
 Gaussian 09:  EM64L-G09RevA.01  8-May-2009
                17-Mar-2022 
 ******************************************
 %chk=[CH2]-T.chk
 ----------------------------------------------------------------------
 # freq=(readfc,hinderedrotor) temp=4950 press=0.987 geom=allcheck gu
 ess=read
 ----------------------------------------------------------------------
 1/18=20,29=7,38=1,111=4950000,112=-986920/1;
 2/12=2,40=1/2;
 7/8=2001,25=11/16;
 99/5=2,8=20/99;
 ---------
 [CH2]-T_1
 ---------
 Redundant internal coordinates taken from checkpoint file:
 [CH2]-T.chk
 Charge =  0 Multiplicity = 3
 C,0,-0.000000362,0.104203,0.
 H,0,0.994487,-0.312606,0.
 H,0,-0.9944848278,-0.3126129104,0.
 Recover connectivity data from disk.
                          Input orientation:                          
 ---------------------------------------------------------------------
 Center     Atomic      Atomic             Coordinates (Angstroms)
 Number     Number       Type             X           Y           Z
 ---------------------------------------------------------------------
      1          6           0        0.000000    0.104203    0.000000
      2          1           0        0.994487   -0.312606    0.000000
      3          1           0       -0.994485   -0.312613    0.000000
 ---------------------------------------------------------------------
                    Distance matrix (angstroms):
                    1          2          3
     1  C    0.000000
     2  H    1.078302   0.000000
     3  H    1.078302   1.988972   0.000000
 Stoichiometry    CH2(3)
 Framework group  C2V[C2(C),SGV(H2)]
 Deg. of freedom     2
 Full point group                 C2V     NOp   4
 Largest Abelian subgroup         C2V     NOp   4
 Largest concise Abelian subgroup C2      NOp   2
                         Standard orientation:                         
 ---------------------------------------------------------------------
 Center     Atomic      Atomic             Coordinates (Angstroms)
 Number     Number       Type             X           Y           Z
 ---------------------------------------------------------------------
      1          6           0        0.000000    0.000000    0.104203
      2          1           0        0.000000    0.994486   -0.312609
      3          1           0        0.000000   -0.994486   -0.312609
 ---------------------------------------------------------------------
 Rotational constants (GHZ):   1685.5928522    253.5156563    220.3714626
 Electric field and nuclear coordinate derivatives read from checkpoint file.
 Rotating derivatives to standard orientation.
 Full mass-weighted force constant matrix:
 Low frequencies --- -286.6934 -205.2636  -78.4232   -0.0007   -0.0002   -0.0001
 Low frequencies --- 1099.4595 3205.4180 3428.8876
 Diagonal vibrational polarizability:
        0.0000000       0.0022164       0.3233146

 rotorrotorrotorrotorrotorrotorrotorrotorrotorrotorrotor

           Hindered Internal Rotation Analysis

 rotorrotorrotorrotorrotorrotorrotorrotorrotorrotorrotor

 Internal coordinate list sorted
 Checking for planar centers
 Checking for ring deformation
 Checking reduced barrier height
 Cut-off : V/RT =     33.756
 Number of internal rotation degrees of freedom =             0
 No hindered rotor corrections are necessary.

 Harmonic frequencies (cm**-1), IR intensities (KM/Mole), Raman scattering
 activities (A**4/AMU), depolarization ratios for plane and unpolarized
 incident light, reduced masses (AMU), force constants (mDyne/A),
 and normal coordinates:
                     1                      2                      3
                    ?A                     A1                     ?B
 Frequencies --  1099.4595              3205.4180              3428.8825
 Red. masses --     1.1357                 1.0275                 1.1382
 Frc consts  --     0.8089                 6.2199                 7.8842
 IR Inten    --    14.3895                 1.1327                 0.9683
  Atom  AN      X      Y      Z        X      Y      Z        X      Y      Z
     1   6     0.00   0.00   0.11     0.00   0.00   0.04     0.00   0.12   0.00
     2   1     0.00  -0.30  -0.68     0.00   0.67  -0.26     0.00  -0.69   0.29
     3   1     0.00   0.30  -0.68     0.00  -0.67  -0.26     0.00  -0.69  -0.29

 -------------------
 - Thermochemistry -
 -------------------
 Temperature   298.150 Kelvin.  Pressure   0.987 Atm.
 Atom     1 has atomic number  6 and mass  12.00000
 Atom     2 has atomic number  1 and mass   1.00783
 Atom     3 has atomic number  1 and mass   1.00783
 Molecular mass:    14.01565 amu.
 Principal axes and moments of inertia in atomic units:
                           1         2         3
     Eigenvalues --     1.07069   7.11886   8.18954
           X            0.00000   0.00000   1.00000
           Y            1.00000   0.00000   0.00000
           Z            0.00000   1.00000   0.00000
 This molecule is an asymmetric top.
 Rotational symmetry number  2.
 Rotational temperatures (Kelvin)     80.89560    12.16682    10.57615
 Rotational constants (GHZ):        1685.59285   253.51566   220.37146
 Zero-point vibrational energy      46258.2 (Joules/Mol)
                                   11.05596 (Kcal/Mol)
 Vibrational temperatures:   1581.88  4611.88  4933.39
          (Kelvin)
 
 Zero-point correction=                           0.017619 (Hartree/Particle)
 Thermal correction to Energy=                    0.020476
 Thermal correction to Enthalpy=                  0.021421
 Thermal correction to Gibbs Free Energy=        -0.000752
 Sum of electronic and zero-point Energies=            -39.124328
 Sum of electronic and thermal Energies=               -39.121471
 Sum of electronic and thermal Enthalpies=             -39.120527
 Sum of electronic and thermal Free Energies=          -39.142699
 
                     E (Thermal)             CV                S
                      KCal/Mol        Cal/Mol-Kelvin    Cal/Mol-Kelvin
 Total                   12.849              6.242             46.666
 Electronic               0.000              0.000              2.183
 Translational            0.889              2.981             33.887
 Rotational               0.889              2.981             10.533
 Vibrational             11.072              0.281              0.062
                       Q            Log10(Q)             Ln(Q)
 Total Bot       0.221712D+01          0.345789          0.796208
 Total V=0       0.281746D+09          8.449858         19.456517
 Vib (Bot)       0.790846D-08         -8.101908        -18.655332
 Vib (V=0)       0.100499D+01          0.002161          0.004976
 Electronic      0.300000D+01          0.477121          1.098612
 Translational   0.208974D+07          6.320093         14.552552
 Rotational      0.447180D+02          1.650482          3.800376
 ***** Axes restored to original set *****
 -------------------------------------------------------------------
 Center     Atomic                   Forces (Hartrees/Bohr)
 Number     Number              X              Y              Z
 -------------------------------------------------------------------
      1        6           0.000000000   -0.000024123    0.000000000
      2        1          -0.000017734    0.000012061    0.000000000
      3        1           0.000017734    0.000012062    0.000000000
 -------------------------------------------------------------------
 Cartesian Forces:  Max     0.000024123 RMS     0.000012918

 This type of calculation cannot be archived.


 WERE I TO AWAIT PERFECTION, MY BOOK WOULD NEVER BE FINISHED.
                                    -- HISTORY OF CHINESE WRITING

                                       TAI T'UNG, 13TH CENTURY
 Job cpu time:  0 days  0 hours  0 minutes  0.2 seconds.
 File lengths (MBytes):  RWF=      5 Int=      0 D2E=      0 Chk=      1 Scr=      1
 Normal termination of Gaussian 09 at Thu Mar 17 11:56:00 2022.
 Initial command:
 /software/g09/l1.exe /home/tmp/g16/Gau-3961194.inp -scrdir=/home/tmp/g16/
 Entering Link 1 = /software/g09/l1.exe PID=   3961568.
  
 Copyright (c) 1988,1990,1992,1993,1995,1998,2003,2009, Gaussian, Inc.
                  All Rights Reserved.
  
 This is part of the Gaussian(R) 09 program.  It is based on
 the Gaussian(R) 03 system (copyright 2003, Gaussian, Inc.),
 the Gaussian(R) 98 system (copyright 1998, Gaussian, Inc.),
 the Gaussian(R) 94 system (copyright 1995, Gaussian, Inc.),
 the Gaussian 92(TM) system (copyright 1992, Gaussian, Inc.),
 the Gaussian 90(TM) system (copyright 1990, Gaussian, Inc.),
 the Gaussian 88(TM) system (copyright 1988, Gaussian, Inc.),
 the Gaussian 86(TM) system (copyright 1986, Carnegie Mellon
 University), and the Gaussian 82(TM) system (copyright 1983,
 Carnegie Mellon University). Gaussian is a federally registered
 trademark of Gaussian, Inc.
  
 This software contains proprietary and confidential information,
 including trade secrets, belonging to Gaussian, Inc.
  
 This software is provided under written license and may be
 used, copied, transmitted, or stored only in accord with that
 written license.
  
 The following legend is applicable only to US Government
 contracts under FAR:
  
                    RESTRICTED RIGHTS LEGEND
  
 Use, reproduction and disclosure by the US Government is
 subject to restrictions as set forth in subparagraphs (a)
 and (c) of the Commercial Computer Software - Restricted
 Rights clause in FAR 52.227-19.
  
 Gaussian, Inc.
 340 Quinnipiac St., Bldg. 40, Wallingford CT 06492
  
  
 ---------------------------------------------------------------
 Warning -- This program may not be used in any manner that
 competes with the business of Gaussian, Inc. or will provide
 assistance to any competitor of Gaussian, Inc.  The licensee
 of this program is prohibited from giving any competitor of
 Gaussian, Inc. access to this program.  By using this program,
 the user acknowledges that Gaussian, Inc. is engaged in the
 business of creating and licensing software in the field of
 computational chemistry and represents and warrants to the
 licensee that it is not a competitor of Gaussian, Inc. and that
 it will not use this program in any manner prohibited above.
 ---------------------------------------------------------------
  

 Cite this work as:
 Gaussian 09, Revision A.01,
 M. J. Frisch, G. W. Trucks, H. B. Schlegel, G. E. Scuseria, 
 M. A. Robb, J. R. Cheeseman, G. Scalmani, V. Barone, B. Mennucci, 
 G. A. Petersson, H. Nakatsuji, M. Caricato, X. Li, H. P. Hratchian, 
 A. F. Izmaylov, J. Bloino, G. Zheng, J. L. Sonnenberg, M. Hada, 
 M. Ehara, K. Toyota, R. Fukuda, J. Hasegawa, M. Ishida, T. Nakajima, 
 Y. Honda, O. Kitao, H. Nakai, T. Vreven, J. A. Montgomery, Jr., 
 J. E. Peralta, F. Ogliaro, M. Bearpark, J. J. Heyd, E. Brothers, 
 K. N. Kudin, V. N. Staroverov, R. Kobayashi, J. Normand, 
 K. Raghavachari, A. Rendell, J. C. Burant, S. S. Iyengar, J. Tomasi, 
 M. Cossi, N. Rega, J. M. Millam, M. Klene, J. E. Knox, J. B. Cross, 
 V. Bakken, C. Adamo, J. Jaramillo, R. Gomperts, R. E. Stratmann, 
 O. Yazyev, A. J. Austin, R. Cammi, C. Pomelli, J. W. Ochterski, 
 R. L. Martin, K. Morokuma, V. G. Zakrzewski, G. A. Voth, 
 P. Salvador, J. J. Dannenberg, S. Dapprich, A. D. Daniels, 
 O. Farkas, J. B. Foresman, J. V. Ortiz, J. Cioslowski, 
 and D. J. Fox, Gaussian, Inc., Wallingford CT, 2009.
 
 ******************************************
 Gaussian 09:  EM64L-G09RevA.01  8-May-2009
                17-Mar-2022 
 ******************************************
 %chk=[CH2]-T.chk
 ----------------------------------------------------------------------
 # freq=(readfc,hinderedrotor) temp=5000 press=0.987 geom=allcheck gu
 ess=read
 ----------------------------------------------------------------------
 1/18=20,29=7,38=1,111=5000000,112=-986920/1;
 2/12=2,40=1/2;
 7/8=2001,25=11/16;
 99/5=2,8=20/99;
 ---------
 [CH2]-T_1
 ---------
 Redundant internal coordinates taken from checkpoint file:
 [CH2]-T.chk
 Charge =  0 Multiplicity = 3
 C,0,-0.000000362,0.104203,0.
 H,0,0.994487,-0.312606,0.
 H,0,-0.9944848278,-0.3126129104,0.
 Recover connectivity data from disk.
                          Input orientation:                          
 ---------------------------------------------------------------------
 Center     Atomic      Atomic             Coordinates (Angstroms)
 Number     Number       Type             X           Y           Z
 ---------------------------------------------------------------------
      1          6           0        0.000000    0.104203    0.000000
      2          1           0        0.994487   -0.312606    0.000000
      3          1           0       -0.994485   -0.312613    0.000000
 ---------------------------------------------------------------------
                    Distance matrix (angstroms):
                    1          2          3
     1  C    0.000000
     2  H    1.078302   0.000000
     3  H    1.078302   1.988972   0.000000
 Stoichiometry    CH2(3)
 Framework group  C2V[C2(C),SGV(H2)]
 Deg. of freedom     2
 Full point group                 C2V     NOp   4
 Largest Abelian subgroup         C2V     NOp   4
 Largest concise Abelian subgroup C2      NOp   2
                         Standard orientation:                         
 ---------------------------------------------------------------------
 Center     Atomic      Atomic             Coordinates (Angstroms)
 Number     Number       Type             X           Y           Z
 ---------------------------------------------------------------------
      1          6           0        0.000000    0.000000    0.104203
      2          1           0        0.000000    0.994486   -0.312609
      3          1           0        0.000000   -0.994486   -0.312609
 ---------------------------------------------------------------------
 Rotational constants (GHZ):   1685.5928522    253.5156563    220.3714626
 Electric field and nuclear coordinate derivatives read from checkpoint file.
 Rotating derivatives to standard orientation.
 Full mass-weighted force constant matrix:
 Low frequencies --- -286.6934 -205.2636  -78.4232   -0.0007   -0.0002   -0.0001
 Low frequencies --- 1099.4595 3205.4180 3428.8876
 Diagonal vibrational polarizability:
        0.0000000       0.0022164       0.3233146

 rotorrotorrotorrotorrotorrotorrotorrotorrotorrotorrotor

           Hindered Internal Rotation Analysis

 rotorrotorrotorrotorrotorrotorrotorrotorrotorrotorrotor

 Internal coordinate list sorted
 Checking for planar centers
 Checking for ring deformation
 Checking reduced barrier height
 Cut-off : V/RT =     33.756
 Number of internal rotation degrees of freedom =             0
 No hindered rotor corrections are necessary.

 Harmonic frequencies (cm**-1), IR intensities (KM/Mole), Raman scattering
 activities (A**4/AMU), depolarization ratios for plane and unpolarized
 incident light, reduced masses (AMU), force constants (mDyne/A),
 and normal coordinates:
                     1                      2                      3
                    ?A                     A1                     ?B
 Frequencies --  1099.4595              3205.4180              3428.8825
 Red. masses --     1.1357                 1.0275                 1.1382
 Frc consts  --     0.8089                 6.2199                 7.8842
 IR Inten    --    14.3895                 1.1327                 0.9683
  Atom  AN      X      Y      Z        X      Y      Z        X      Y      Z
     1   6     0.00   0.00   0.11     0.00   0.00   0.04     0.00   0.12   0.00
     2   1     0.00  -0.30  -0.68     0.00   0.67  -0.26     0.00  -0.69   0.29
     3   1     0.00   0.30  -0.68     0.00  -0.67  -0.26     0.00  -0.69  -0.29

 -------------------
 - Thermochemistry -
 -------------------
 Temperature   298.150 Kelvin.  Pressure   0.987 Atm.
 Atom     1 has atomic number  6 and mass  12.00000
 Atom     2 has atomic number  1 and mass   1.00783
 Atom     3 has atomic number  1 and mass   1.00783
 Molecular mass:    14.01565 amu.
 Principal axes and moments of inertia in atomic units:
                           1         2         3
     Eigenvalues --     1.07069   7.11886   8.18954
           X            0.00000   0.00000   1.00000
           Y            1.00000   0.00000   0.00000
           Z            0.00000   1.00000   0.00000
 This molecule is an asymmetric top.
 Rotational symmetry number  2.
 Rotational temperatures (Kelvin)     80.89560    12.16682    10.57615
 Rotational constants (GHZ):        1685.59285   253.51566   220.37146
 Zero-point vibrational energy      46258.2 (Joules/Mol)
                                   11.05596 (Kcal/Mol)
 Vibrational temperatures:   1581.88  4611.88  4933.39
          (Kelvin)
 
 Zero-point correction=                           0.017619 (Hartree/Particle)
 Thermal correction to Energy=                    0.020476
 Thermal correction to Enthalpy=                  0.021421
 Thermal correction to Gibbs Free Energy=        -0.000752
 Sum of electronic and zero-point Energies=            -39.124328
 Sum of electronic and thermal Energies=               -39.121471
 Sum of electronic and thermal Enthalpies=             -39.120527
 Sum of electronic and thermal Free Energies=          -39.142699
 
                     E (Thermal)             CV                S
                      KCal/Mol        Cal/Mol-Kelvin    Cal/Mol-Kelvin
 Total                   12.849              6.242             46.666
 Electronic               0.000              0.000              2.183
 Translational            0.889              2.981             33.887
 Rotational               0.889              2.981             10.533
 Vibrational             11.072              0.281              0.062
                       Q            Log10(Q)             Ln(Q)
 Total Bot       0.221712D+01          0.345789          0.796208
 Total V=0       0.281746D+09          8.449858         19.456517
 Vib (Bot)       0.790846D-08         -8.101908        -18.655332
 Vib (V=0)       0.100499D+01          0.002161          0.004976
 Electronic      0.300000D+01          0.477121          1.098612
 Translational   0.208974D+07          6.320093         14.552552
 Rotational      0.447180D+02          1.650482          3.800376
 ***** Axes restored to original set *****
 -------------------------------------------------------------------
 Center     Atomic                   Forces (Hartrees/Bohr)
 Number     Number              X              Y              Z
 -------------------------------------------------------------------
      1        6           0.000000000   -0.000024123    0.000000000
      2        1          -0.000017734    0.000012061    0.000000000
      3        1           0.000017734    0.000012062    0.000000000
 -------------------------------------------------------------------
 Cartesian Forces:  Max     0.000024123 RMS     0.000012918

 This type of calculation cannot be archived.


 WERE I TO AWAIT PERFECTION, MY BOOK WOULD NEVER BE FINISHED.
                                    -- HISTORY OF CHINESE WRITING

                                       TAI T'UNG, 13TH CENTURY
 Job cpu time:  0 days  0 hours  0 minutes  0.1 seconds.
 File lengths (MBytes):  RWF=      5 Int=      0 D2E=      0 Chk=      1 Scr=      1
 Normal termination of Gaussian 09 at Thu Mar 17 11:56:00 2022.
