 Entering Gaussian System, Link 0=g09
 Initial command:
 /software/g09/l1.exe /home/tmp/g16/Gau-3955148.inp -scrdir=/home/tmp/g16/
 Entering Link 1 = /software/g09/l1.exe PID=   3955152.
  
 Copyright (c) 1988,1990,1992,1993,1995,1998,2003,2009, Gaussian, Inc.
                  All Rights Reserved.
  
 This is part of the Gaussian(R) 09 program.  It is based on
 the Gaussian(R) 03 system (copyright 2003, Gaussian, Inc.),
 the Gaussian(R) 98 system (copyright 1998, Gaussian, Inc.),
 the Gaussian(R) 94 system (copyright 1995, Gaussian, Inc.),
 the Gaussian 92(TM) system (copyright 1992, Gaussian, Inc.),
 the Gaussian 90(TM) system (copyright 1990, Gaussian, Inc.),
 the Gaussian 88(TM) system (copyright 1988, Gaussian, Inc.),
 the Gaussian 86(TM) system (copyright 1986, Carnegie Mellon
 University), and the Gaussian 82(TM) system (copyright 1983,
 Carnegie Mellon University). Gaussian is a federally registered
 trademark of Gaussian, Inc.
  
 This software contains proprietary and confidential information,
 including trade secrets, belonging to Gaussian, Inc.
  
 This software is provided under written license and may be
 used, copied, transmitted, or stored only in accord with that
 written license.
  
 The following legend is applicable only to US Government
 contracts under FAR:
  
                    RESTRICTED RIGHTS LEGEND
  
 Use, reproduction and disclosure by the US Government is
 subject to restrictions as set forth in subparagraphs (a)
 and (c) of the Commercial Computer Software - Restricted
 Rights clause in FAR 52.227-19.
  
 Gaussian, Inc.
 340 Quinnipiac St., Bldg. 40, Wallingford CT 06492
  
  
 ---------------------------------------------------------------
 Warning -- This program may not be used in any manner that
 competes with the business of Gaussian, Inc. or will provide
 assistance to any competitor of Gaussian, Inc.  The licensee
 of this program is prohibited from giving any competitor of
 Gaussian, Inc. access to this program.  By using this program,
 the user acknowledges that Gaussian, Inc. is engaged in the
 business of creating and licensing software in the field of
 computational chemistry and represents and warrants to the
 licensee that it is not a competitor of Gaussian, Inc. and that
 it will not use this program in any manner prohibited above.
 ---------------------------------------------------------------
  

 Cite this work as:
 Gaussian 09, Revision A.01,
 M. J. Frisch, G. W. Trucks, H. B. Schlegel, G. E. Scuseria, 
 M. A. Robb, J. R. Cheeseman, G. Scalmani, V. Barone, B. Mennucci, 
 G. A. Petersson, H. Nakatsuji, M. Caricato, X. Li, H. P. Hratchian, 
 A. F. Izmaylov, J. Bloino, G. Zheng, J. L. Sonnenberg, M. Hada, 
 M. Ehara, K. Toyota, R. Fukuda, J. Hasegawa, M. Ishida, T. Nakajima, 
 Y. Honda, O. Kitao, H. Nakai, T. Vreven, J. A. Montgomery, Jr., 
 J. E. Peralta, F. Ogliaro, M. Bearpark, J. J. Heyd, E. Brothers, 
 K. N. Kudin, V. N. Staroverov, R. Kobayashi, J. Normand, 
 K. Raghavachari, A. Rendell, J. C. Burant, S. S. Iyengar, J. Tomasi, 
 M. Cossi, N. Rega, J. M. Millam, M. Klene, J. E. Knox, J. B. Cross, 
 V. Bakken, C. Adamo, J. Jaramillo, R. Gomperts, R. E. Stratmann, 
 O. Yazyev, A. J. Austin, R. Cammi, C. Pomelli, J. W. Ochterski, 
 R. L. Martin, K. Morokuma, V. G. Zakrzewski, G. A. Voth, 
 P. Salvador, J. J. Dannenberg, S. Dapprich, A. D. Daniels, 
 O. Farkas, J. B. Foresman, J. V. Ortiz, J. Cioslowski, 
 and D. J. Fox, Gaussian, Inc., Wallingford CT, 2009.
 
 ******************************************
 Gaussian 09:  EM64L-G09RevA.01  8-May-2009
                17-Mar-2022 
 ******************************************
 %nprocshared=8
 Will use up to    8 processors via shared memory.
 %chk=[H][H].chk
 ----------------------------------------------------------
 # opt freq=hinderedrotor M062X/6-311++g(d,p) press=0.987
 ----------------------------------------------------------
 1/14=-1,18=20,19=15,26=3,38=1,112=-986920/1,3;
 2/9=110,12=2,17=6,18=5,40=1/2;
 3/5=4,6=6,7=1111,11=2,16=1,25=1,30=1,71=1,74=-55/1,2,3;
 4//1;
 5/5=2,38=5/2;
 6/7=2,8=2,9=2,10=2,28=1/1;
 7//1,2,3,16;
 1/14=-1,18=20,19=15/3(2);
 2/9=110/2;
 99/8=20/99;
 2/9=110/2;
 3/5=4,6=6,7=1111,11=2,16=1,25=1,30=1,71=1,74=-55/1,2,3;
 4/5=5,16=3/1;
 5/5=2,38=5/2;
 7//1,2,3,16;
 1/14=-1,18=20,19=15/3(-5);
 2/9=110/2;
 6/7=2,8=2,9=2,10=2,19=2,28=1/1;
 99/8=20,9=1/99;
 --------
 [H][H]_1
 --------
 Symbolic Z-matrix:
 Charge =  0 Multiplicity = 1
 H                    -0.33732   0.        0. 
 H                     0.33732   0.        0. 
 

 GradGradGradGradGradGradGradGradGradGradGradGradGradGradGradGradGradGrad
 Berny optimization.
 Initialization pass.
                           ----------------------------
                           !    Initial Parameters    !
                           ! (Angstroms and Degrees)  !
 --------------------------                            --------------------------
 ! Name  Definition              Value          Derivative Info.                !
 --------------------------------------------------------------------------------
 ! R1    R(1,2)                  0.6746         estimate D2E/DX2                !
 --------------------------------------------------------------------------------
 Trust Radius=3.00D-01 FncErr=1.00D-07 GrdErr=1.00D-06
 Number of steps in this run=  20 maximum allowed number of steps= 100.
 GradGradGradGradGradGradGradGradGradGradGradGradGradGradGradGradGradGrad

                          Input orientation:                          
 ---------------------------------------------------------------------
 Center     Atomic      Atomic             Coordinates (Angstroms)
 Number     Number       Type             X           Y           Z
 ---------------------------------------------------------------------
      1          1           0       -0.337320    0.000000    0.000000
      2          1           0        0.337320    0.000000    0.000000
 ---------------------------------------------------------------------
 Stoichiometry    H2
 Framework group  D*H[C*(H.H)]
 Deg. of freedom     1
 Full point group                 D*H     NOp   8
 Largest Abelian subgroup         D2H     NOp   8
 Largest concise Abelian subgroup C2      NOp   2
                         Standard orientation:                         
 ---------------------------------------------------------------------
 Center     Atomic      Atomic             Coordinates (Angstroms)
 Number     Number       Type             X           Y           Z
 ---------------------------------------------------------------------
      1          1           0        0.000000    0.000000    0.337320
      2          1           0        0.000000    0.000000   -0.337320
 ---------------------------------------------------------------------
 Rotational constants (GHZ):      0.0000000   2203.5244507   2203.5244507
 Standard basis: 6-311++G(d,p) (5D, 7F)
 There are     5 symmetry adapted basis functions of AG  symmetry.
 There are     0 symmetry adapted basis functions of B1G symmetry.
 There are     1 symmetry adapted basis functions of B2G symmetry.
 There are     1 symmetry adapted basis functions of B3G symmetry.
 There are     0 symmetry adapted basis functions of AU  symmetry.
 There are     5 symmetry adapted basis functions of B1U symmetry.
 There are     1 symmetry adapted basis functions of B2U symmetry.
 There are     1 symmetry adapted basis functions of B3U symmetry.
 Integral buffers will be    131072 words long.
 Raffenetti 2 integral format.
 Two-electron integral symmetry is turned on.
    14 basis functions,    18 primitive gaussians,    14 cartesian basis functions
     1 alpha electrons        1 beta electrons
       nuclear repulsion energy         0.7843845734 Hartrees.
 NAtoms=    2 NActive=    2 NUniq=    1 SFac= 3.00D+00 NAtFMM=   80 NAOKFM=F Big=F
 One-electron integrals computed using PRISM.
 NBasis=    14 RedAO= T  NBF=     5     0     1     1     0     5     1     1
 NBsUse=    14 1.00D-06 NBFU=     5     0     1     1     0     5     1     1
 Harris functional with IExCor= 1009 diagonalized for initial guess.
 ExpMin= 3.60D-02 ExpMax= 3.39D+01 ExpMxC= 3.39D+01 IAcc=3 IRadAn=         0 AccDes= 0.00D+00
 HarFok:  IExCor= 1009 AccDes= 0.00D+00 IRadAn=         0 IDoV= 1
 ScaDFX=  1.000000  1.000000  1.000000  1.000000
 FoFCou: FMM=F IPFlag=           0 FMFlag=      100000 FMFlg1=           0
         NFxFlg=           0 DoJE=T BraDBF=F KetDBF=T FulRan=T
         Omega=  0.000000  0.000000  1.000000  0.000000  0.000000 ICntrl=     500 IOpCl=  0
         NMat0=    1 NMatS0=    1 NMatT0=    0 NMatD0=    1 NMtDS0=    0 NMtDT0=    0
         I1Cent=           4 NGrid=           0.
 Petite list used in FoFCou.
 Initial guess orbital symmetries:
       Occupied  (SGG)
       Virtual   (SGU) (SGG) (SGU) (SGG) (SGU) (PIU) (PIU) (SGG)
                 (PIG) (PIG) (SGU) (SGG) (SGU)
 The electronic state of the initial guess is 1-SGG.
 Requested convergence on RMS density matrix=1.00D-08 within 128 cycles.
 Requested convergence on MAX density matrix=1.00D-06.
 Requested convergence on             energy=1.00D-06.
 No special actions if energy rises.
 Keep R1 ints in memory in canonical form, NReq=901098.
 SCF Done:  E(RM062X) =  -1.16492607601     A.U. after    6 cycles
             Convg  =    0.3266D-10             -V/T =  1.9620

 **********************************************************************

            Population analysis using the SCF density.

 **********************************************************************

 Orbital symmetries:
       Occupied  (SGG)
       Virtual   (SGG) (SGU) (SGU) (SGG) (SGU) (PIU) (PIU) (SGG)
                 (PIG) (PIG) (SGU) (SGG) (SGU)
 The electronic state is 1-SGG.
 Alpha  occ. eigenvalues --   -0.51300
 Alpha virt. eigenvalues --    0.03248   0.03633   0.19664   0.38021   0.67293
 Alpha virt. eigenvalues --    1.25052   1.25052   1.70669   1.91663   1.91663
 Alpha virt. eigenvalues --    2.07621   2.58290   4.36706
          Condensed to atoms (all electrons):
              1          2
     1  H    0.572133   0.427867
     2  H    0.427867   0.572133
 Mulliken atomic charges:
              1
     1  H    0.000000
     2  H    0.000000
 Sum of Mulliken atomic charges =   0.00000
 Mulliken charges with hydrogens summed into heavy atoms:
              1
 Sum of Mulliken charges with hydrogens summed into heavy atoms =   0.00000
 Electronic spatial extent (au):  <R**2>=              4.8653
 Charge=              0.0000 electrons
 Dipole moment (field-independent basis, Debye):
    X=              0.0000    Y=              0.0000    Z=              0.0000  Tot=              0.0000
 Quadrupole moment (field-independent basis, Debye-Ang):
   XX=             -1.9811   YY=             -1.9811   ZZ=             -1.4886
   XY=              0.0000   XZ=              0.0000   YZ=              0.0000
 Traceless Quadrupole moment (field-independent basis, Debye-Ang):
   XX=             -0.1642   YY=             -0.1642   ZZ=              0.3284
   XY=              0.0000   XZ=              0.0000   YZ=              0.0000
 Octapole moment (field-independent basis, Debye-Ang**2):
  XXX=              0.0000  YYY=              0.0000  ZZZ=              0.0000  XYY=              0.0000
  XXY=              0.0000  XXZ=              0.0000  XZZ=              0.0000  YZZ=              0.0000
  YYZ=              0.0000  XYZ=              0.0000
 Hexadecapole moment (field-independent basis, Debye-Ang**3):
 XXXX=             -1.9209 YYYY=             -1.9209 ZZZZ=             -2.5845 XXXY=              0.0000
 XXXZ=              0.0000 YYYX=              0.0000 YYYZ=              0.0000 ZZZX=              0.0000
 ZZZY=              0.0000 XXYY=             -0.6403 XXZZ=             -0.7629 YYZZ=             -0.7629
 XXYZ=              0.0000 YYXZ=              0.0000 ZZXY=              0.0000
 N-N= 7.843845733873D-01 E-N=-3.808298894122D+00  KE= 1.210886140692D+00
 Symmetry AG   KE= 1.210886140692D+00
 Symmetry B1G  KE= 0.000000000000D+00
 Symmetry B2G  KE= 3.698688852265D-34
 Symmetry B3G  KE= 3.698688852265D-34
 Symmetry AU   KE= 0.000000000000D+00
 Symmetry B1U  KE= 2.632503226590D-31
 Symmetry B2U  KE= 6.395468445474D-35
 Symmetry B3U  KE= 6.395468445474D-35
 Calling FoFJK, ICntrl=      2127 FMM=F ISym2X=1 I1Cent= 0 IOpClX= 0 NMat=1 NMatS=1 NMatT=0.
 ***** Axes restored to original set *****
 -------------------------------------------------------------------
 Center     Atomic                   Forces (Hartrees/Bohr)
 Number     Number              X              Y              Z
 -------------------------------------------------------------------
      1        1          -0.058465181    0.000000000    0.000000000
      2        1           0.058465181    0.000000000    0.000000000
 -------------------------------------------------------------------
 Cartesian Forces:  Max     0.058465181 RMS     0.033754888

 GradGradGradGradGradGradGradGradGradGradGradGradGradGradGradGradGradGrad
 Berny optimization.
 Internal  Forces:  Max     0.058465181 RMS     0.058465181
 Search for a local minimum.
 Step number   1 out of a maximum of   20
 All quantities printed in internal units (Hartrees-Bohrs-Radians)
 Mixed Optimization -- RFO/linear search
 Second derivative matrix not updated -- first step.
 The second derivative matrix:
                          R1
           R1           0.49485
     Eigenvalues ---    0.49485
 RFO step:  Lambda=-6.81366834D-03 EMin= 4.94851114D-01
 Linear search not attempted -- first point.
 Iteration  1 RMS(Cart)=  0.08240787 RMS(Int)=  0.00000000
 Iteration  2 RMS(Cart)=  0.00000000 RMS(Int)=  0.00000000
 ClnCor:  largest displacement from symmetrization is 3.57D-18 for atom     1.
 Variable       Old X    -DE/DX   Delta X   Delta X   Delta X     New X
                                 (Linear)    (Quad)   (Total)
    R1        1.27488   0.05847   0.00000   0.11654   0.11654   1.39143
         Item               Value     Threshold  Converged?
 Maximum Force            0.058465     0.000450     NO 
 RMS     Force            0.058465     0.000300     NO 
 Maximum Displacement     0.058271     0.001800     NO 
 RMS     Displacement     0.082408     0.001200     NO 
 Predicted change in Energy=-3.453106D-03
 GradGradGradGradGradGradGradGradGradGradGradGradGradGradGradGradGradGrad

                          Input orientation:                          
 ---------------------------------------------------------------------
 Center     Atomic      Atomic             Coordinates (Angstroms)
 Number     Number       Type             X           Y           Z
 ---------------------------------------------------------------------
      1          1           0       -0.368156    0.000000    0.000000
      2          1           0        0.368156    0.000000    0.000000
 ---------------------------------------------------------------------
 Stoichiometry    H2
 Framework group  D*H[C*(H.H)]
 Deg. of freedom     1
 Full point group                 D*H     NOp   8
 Largest Abelian subgroup         D2H     NOp   8
 Largest concise Abelian subgroup C2      NOp   2
                         Standard orientation:                         
 ---------------------------------------------------------------------
 Center     Atomic      Atomic             Coordinates (Angstroms)
 Number     Number       Type             X           Y           Z
 ---------------------------------------------------------------------
      1          1           0        0.000000    0.000000    0.368156
      2          1           0        0.000000    0.000000   -0.368156
 ---------------------------------------------------------------------
 Rotational constants (GHZ):      0.0000000   1849.8598652   1849.8598652
 Standard basis: 6-311++G(d,p) (5D, 7F)
 There are     5 symmetry adapted basis functions of AG  symmetry.
 There are     0 symmetry adapted basis functions of B1G symmetry.
 There are     1 symmetry adapted basis functions of B2G symmetry.
 There are     1 symmetry adapted basis functions of B3G symmetry.
 There are     0 symmetry adapted basis functions of AU  symmetry.
 There are     5 symmetry adapted basis functions of B1U symmetry.
 There are     1 symmetry adapted basis functions of B2U symmetry.
 There are     1 symmetry adapted basis functions of B3U symmetry.
 Integral buffers will be    131072 words long.
 Raffenetti 2 integral format.
 Two-electron integral symmetry is turned on.
    14 basis functions,    18 primitive gaussians,    14 cartesian basis functions
     1 alpha electrons        1 beta electrons
       nuclear repulsion energy         0.7186865575 Hartrees.
 NAtoms=    2 NActive=    2 NUniq=    1 SFac= 3.00D+00 NAtFMM=   80 NAOKFM=F Big=F
 One-electron integrals computed using PRISM.
 NBasis=    14 RedAO= T  NBF=     5     0     1     1     0     5     1     1
 NBsUse=    14 1.00D-06 NBFU=     5     0     1     1     0     5     1     1
 Initial guess read from the read-write file.
 B after Tr=     0.000000    0.000000    0.000000
         Rot=    1.000000    0.000000    0.000000    0.000000 Ang=   0.00 deg.
 Initial guess orbital symmetries:
       Occupied  (SGG)
       Virtual   (SGG) (SGU) (SGU) (SGG) (SGU) (PIU) (PIU) (SGG)
                 (PIG) (PIG) (SGU) (SGG) (SGU)
 Harris functional with IExCor= 1009 diagonalized for initial guess.
 ExpMin= 3.60D-02 ExpMax= 3.39D+01 ExpMxC= 3.39D+01 IAcc=3 IRadAn=         0 AccDes= 0.00D+00
 HarFok:  IExCor= 1009 AccDes= 0.00D+00 IRadAn=         0 IDoV= 1
 ScaDFX=  1.000000  1.000000  1.000000  1.000000
 FoFCou: FMM=F IPFlag=           0 FMFlag=      100000 FMFlg1=           0
         NFxFlg=           0 DoJE=T BraDBF=F KetDBF=T FulRan=T
         Omega=  0.000000  0.000000  1.000000  0.000000  0.000000 ICntrl=     500 IOpCl=  0
         NMat0=    1 NMatS0=    1 NMatT0=    0 NMatD0=    1 NMtDS0=    0 NMtDT0=    0
         I1Cent=           4 NGrid=           0.
 Petite list used in FoFCou.
 Requested convergence on RMS density matrix=1.00D-08 within 128 cycles.
 Requested convergence on MAX density matrix=1.00D-06.
 Requested convergence on             energy=1.00D-06.
 No special actions if energy rises.
 Keep R1 ints in memory in canonical form, NReq=901098.
 SCF Done:  E(RM062X) =  -1.16828899856     A.U. after    5 cycles
             Convg  =    0.5091D-08             -V/T =  2.0203
 Calling FoFJK, ICntrl=      2127 FMM=F ISym2X=1 I1Cent= 0 IOpClX= 0 NMat=1 NMatS=1 NMatT=0.
 ***** Axes restored to original set *****
 -------------------------------------------------------------------
 Center     Atomic                   Forces (Hartrees/Bohr)
 Number     Number              X              Y              Z
 -------------------------------------------------------------------
      1        1          -0.002859801    0.000000000    0.000000000
      2        1           0.002859801    0.000000000    0.000000000
 -------------------------------------------------------------------
 Cartesian Forces:  Max     0.002859801 RMS     0.001651107

 GradGradGradGradGradGradGradGradGradGradGradGradGradGradGradGradGradGrad
 Berny optimization.
 Using GEDIIS/GDIIS optimizer.
 Internal  Forces:  Max     0.002859801 RMS     0.002859801
 Search for a local minimum.
 Step number   2 out of a maximum of   20
 All quantities printed in internal units (Hartrees-Bohrs-Radians)
 Mixed Optimization -- RFO/linear search
 Update second derivatives using D2CorX and points    1    2
 DE= -3.36D-03 DEPred=-3.45D-03 R= 9.74D-01
 SS=  1.41D+00  RLast= 1.17D-01 DXNew= 5.0454D-01 3.4963D-01
 Trust test= 9.74D-01 RLast= 1.17D-01 DXMaxT set to 3.50D-01
 The second derivative matrix:
                          R1
           R1           0.47713
 Use linear search instead of GDIIS.
     Eigenvalues ---    0.47713
 RFO step:  Lambda= 0.00000000D+00 EMin= 4.77126048D-01
 Quartic linear search produced a step of  0.06428.
 Iteration  1 RMS(Cart)=  0.00529680 RMS(Int)=  0.00000000
 Iteration  2 RMS(Cart)=  0.00000000 RMS(Int)=  0.00000000
 ClnCor:  largest displacement from symmetrization is 2.29D-19 for atom     2.
 Variable       Old X    -DE/DX   Delta X   Delta X   Delta X     New X
                                 (Linear)    (Quad)   (Total)
    R1        1.39143   0.00286   0.00749   0.00000   0.00749   1.39892
         Item               Value     Threshold  Converged?
 Maximum Force            0.002860     0.000450     NO 
 RMS     Force            0.002860     0.000300     NO 
 Maximum Displacement     0.003745     0.001800     NO 
 RMS     Displacement     0.005297     0.001200     NO 
 Predicted change in Energy=-8.035921D-06
 GradGradGradGradGradGradGradGradGradGradGradGradGradGradGradGradGradGrad

                          Input orientation:                          
 ---------------------------------------------------------------------
 Center     Atomic      Atomic             Coordinates (Angstroms)
 Number     Number       Type             X           Y           Z
 ---------------------------------------------------------------------
      1          1           0       -0.370138    0.000000    0.000000
      2          1           0        0.370138    0.000000    0.000000
 ---------------------------------------------------------------------
 Stoichiometry    H2
 Framework group  D*H[C*(H.H)]
 Deg. of freedom     1
 Full point group                 D*H     NOp   8
 Largest Abelian subgroup         D2H     NOp   8
 Largest concise Abelian subgroup C2      NOp   2
                         Standard orientation:                         
 ---------------------------------------------------------------------
 Center     Atomic      Atomic             Coordinates (Angstroms)
 Number     Number       Type             X           Y           Z
 ---------------------------------------------------------------------
      1          1           0        0.000000    0.000000    0.370138
      2          1           0        0.000000    0.000000   -0.370138
 ---------------------------------------------------------------------
 Rotational constants (GHZ):      0.0000000   1830.1019451   1830.1019451
 Standard basis: 6-311++G(d,p) (5D, 7F)
 There are     5 symmetry adapted basis functions of AG  symmetry.
 There are     0 symmetry adapted basis functions of B1G symmetry.
 There are     1 symmetry adapted basis functions of B2G symmetry.
 There are     1 symmetry adapted basis functions of B3G symmetry.
 There are     0 symmetry adapted basis functions of AU  symmetry.
 There are     5 symmetry adapted basis functions of B1U symmetry.
 There are     1 symmetry adapted basis functions of B2U symmetry.
 There are     1 symmetry adapted basis functions of B3U symmetry.
 Integral buffers will be    131072 words long.
 Raffenetti 2 integral format.
 Two-electron integral symmetry is turned on.
    14 basis functions,    18 primitive gaussians,    14 cartesian basis functions
     1 alpha electrons        1 beta electrons
       nuclear repulsion energy         0.7148381927 Hartrees.
 NAtoms=    2 NActive=    2 NUniq=    1 SFac= 3.00D+00 NAtFMM=   80 NAOKFM=F Big=F
 One-electron integrals computed using PRISM.
 NBasis=    14 RedAO= T  NBF=     5     0     1     1     0     5     1     1
 NBsUse=    14 1.00D-06 NBFU=     5     0     1     1     0     5     1     1
 Initial guess read from the read-write file.
 B after Tr=     0.000000    0.000000    0.000000
         Rot=    1.000000    0.000000    0.000000    0.000000 Ang=   0.00 deg.
 Initial guess orbital symmetries:
       Occupied  (SGG)
       Virtual   (SGG) (SGU) (SGU) (SGG) (SGU) (PIU) (PIU) (SGG)
                 (PIG) (PIG) (SGU) (SGG) (SGU)
 Requested convergence on RMS density matrix=1.00D-08 within 128 cycles.
 Requested convergence on MAX density matrix=1.00D-06.
 Requested convergence on             energy=1.00D-06.
 No special actions if energy rises.
 Keep R1 ints in memory in canonical form, NReq=901098.
 SCF Done:  E(RM062X) =  -1.16829956291     A.U. after    4 cycles
             Convg  =    0.4630D-08             -V/T =  2.0238
 Calling FoFJK, ICntrl=      2127 FMM=F ISym2X=1 I1Cent= 0 IOpClX= 0 NMat=1 NMatS=1 NMatT=0.
 ***** Axes restored to original set *****
 -------------------------------------------------------------------
 Center     Atomic                   Forces (Hartrees/Bohr)
 Number     Number              X              Y              Z
 -------------------------------------------------------------------
      1        1           0.000027204    0.000000000    0.000000000
      2        1          -0.000027204    0.000000000    0.000000000
 -------------------------------------------------------------------
 Cartesian Forces:  Max     0.000027204 RMS     0.000015706

 GradGradGradGradGradGradGradGradGradGradGradGradGradGradGradGradGradGrad
 Berny optimization.
 Using GEDIIS/GDIIS optimizer.
 Internal  Forces:  Max     0.000027204 RMS     0.000027204
 Search for a local minimum.
 Step number   3 out of a maximum of   20
 All quantities printed in internal units (Hartrees-Bohrs-Radians)
 Mixed Optimization -- En-DIIS/RFO-DIIS
 Update second derivatives using D2CorX and points    2    3
 DE= -1.06D-05 DEPred=-8.04D-06 R= 1.31D+00
 SS=  1.41D+00  RLast= 7.49D-03 DXNew= 5.8800D-01 2.2472D-02
 Trust test= 1.31D+00 RLast= 7.49D-03 DXMaxT set to 3.50D-01
 The second derivative matrix:
                          R1
           R1           0.38541
 Use linear search instead of GDIIS.
     Eigenvalues ---    0.38541
 RFO step:  Lambda= 0.00000000D+00 EMin= 3.85406046D-01
 Quartic linear search produced a step of -0.00954.
 Iteration  1 RMS(Cart)=  0.00005053 RMS(Int)=  0.00000000
 Iteration  2 RMS(Cart)=  0.00000000 RMS(Int)=  0.00000000
 ClnCor:  largest displacement from symmetrization is 2.19D-21 for atom     2.
 Variable       Old X    -DE/DX   Delta X   Delta X   Delta X     New X
                                 (Linear)    (Quad)   (Total)
    R1        1.39892  -0.00003  -0.00007   0.00000  -0.00007   1.39885
         Item               Value     Threshold  Converged?
 Maximum Force            0.000027     0.000450     YES
 RMS     Force            0.000027     0.000300     YES
 Maximum Displacement     0.000036     0.001800     YES
 RMS     Displacement     0.000051     0.001200     YES
 Predicted change in Energy=-9.599207D-10
 Optimization completed.
    -- Stationary point found.
                           ----------------------------
                           !   Optimized Parameters   !
                           ! (Angstroms and Degrees)  !
 --------------------------                            --------------------------
 ! Name  Definition              Value          Derivative Info.                !
 --------------------------------------------------------------------------------
 ! R1    R(1,2)                  0.7403         -DE/DX =    0.0                 !
 --------------------------------------------------------------------------------
 GradGradGradGradGradGradGradGradGradGradGradGradGradGradGradGradGradGrad

                          Input orientation:                          
 ---------------------------------------------------------------------
 Center     Atomic      Atomic             Coordinates (Angstroms)
 Number     Number       Type             X           Y           Z
 ---------------------------------------------------------------------
      1          1           0       -0.370138    0.000000    0.000000
      2          1           0        0.370138    0.000000    0.000000
 ---------------------------------------------------------------------
 Stoichiometry    H2
 Framework group  D*H[C*(H.H)]
 Deg. of freedom     1
 Full point group                 D*H     NOp   8
 Largest Abelian subgroup         D2H     NOp   8
 Largest concise Abelian subgroup C2      NOp   2
                         Standard orientation:                         
 ---------------------------------------------------------------------
 Center     Atomic      Atomic             Coordinates (Angstroms)
 Number     Number       Type             X           Y           Z
 ---------------------------------------------------------------------
      1          1           0        0.000000    0.000000    0.370138
      2          1           0        0.000000    0.000000   -0.370138
 ---------------------------------------------------------------------
 Rotational constants (GHZ):      0.0000000   1830.1019451   1830.1019451

 **********************************************************************

            Population analysis using the SCF density.

 **********************************************************************

 Orbital symmetries:
       Occupied  (SGG)
       Virtual   (SGG) (SGU) (SGU) (SGG) (SGU) (PIU) (PIU) (SGG)
                 (PIG) (PIG) (SGU) (SGG) (SGU)
 The electronic state is 1-SGG.
 Alpha  occ. eigenvalues --   -0.49631
 Alpha virt. eigenvalues --    0.03308   0.03367   0.18571   0.38448   0.65513
 Alpha virt. eigenvalues --    1.24410   1.24410   1.66380   1.86845   1.86845
 Alpha virt. eigenvalues --    2.15068   2.59351   3.79841
          Condensed to atoms (all electrons):
              1          2
     1  H    0.583007   0.416993
     2  H    0.416993   0.583007
 Mulliken atomic charges:
              1
     1  H    0.000000
     2  H    0.000000
 Sum of Mulliken atomic charges =   0.00000
 Mulliken charges with hydrogens summed into heavy atoms:
              1
 Sum of Mulliken charges with hydrogens summed into heavy atoms =   0.00000
 Electronic spatial extent (au):  <R**2>=              5.1864
 Charge=              0.0000 electrons
 Dipole moment (field-independent basis, Debye):
    X=              0.0000    Y=              0.0000    Z=              0.0000  Tot=              0.0000
 Quadrupole moment (field-independent basis, Debye-Ang):
   XX=             -2.0764   YY=             -2.0764   ZZ=             -1.5070
   XY=              0.0000   XZ=              0.0000   YZ=              0.0000
 Traceless Quadrupole moment (field-independent basis, Debye-Ang):
   XX=             -0.1898   YY=             -0.1898   ZZ=              0.3796
   XY=              0.0000   XZ=              0.0000   YZ=              0.0000
 Octapole moment (field-independent basis, Debye-Ang**2):
  XXX=              0.0000  YYY=              0.0000  ZZZ=              0.0000  XYY=              0.0000
  XXY=              0.0000  XXZ=              0.0000  XZZ=              0.0000  YZZ=              0.0000
  YYZ=              0.0000  XYZ=              0.0000
 Hexadecapole moment (field-independent basis, Debye-Ang**3):
 XXXX=             -2.0965 YYYY=             -2.0965 ZZZZ=             -2.9510 XXXY=              0.0000
 XXXZ=              0.0000 YYYX=              0.0000 YYYZ=              0.0000 ZZZX=              0.0000
 ZZZY=              0.0000 XXYY=             -0.6988 XXZZ=             -0.8579 YYZZ=             -0.8579
 XXYZ=              0.0000 YYXZ=              0.0000 ZZXY=              0.0000
 N-N= 7.148381926502D-01 E-N=-3.648091571992D+00  KE= 1.141135226835D+00
 Symmetry AG   KE= 1.141135226835D+00
 Symmetry B1G  KE= 0.000000000000D+00
 Symmetry B2G  KE= 3.113321211865D-34
 Symmetry B3G  KE= 3.113321211865D-34
 Symmetry AU   KE= 0.000000000000D+00
 Symmetry B1U  KE= 5.720757033290D-32
 Symmetry B2U  KE= 6.284919260340D-35
 Symmetry B3U  KE= 6.284919260340D-35
 1\1\GINC-LOCALHOST\FOpt\RM062X\6-311++G(d,p)\H2\ROOT\17-Mar-2022\0\\# 
 opt freq=hinderedrotor M062X/6-311++g(d,p) press=0.987\\[H][H]_1\\0,
 1\H,-0.3701377557,0.,0.\H,0.3701377557,0.,0.\\Version=EM64L-G09RevA.01
 \State=1-SGG\HF=-1.1682996\RMSD=4.630e-09\RMSF=1.571e-05\Dipole=0.,0.,
 0.\Quadrupole=0.2822307,-0.1411154,-0.1411154,0.,0.,0.\PG=D*H [C*(H1.H
 1)]\\@


 BE LIKE A POSTAGE STAMP.  STICK TO ONE THING UNTIL
 YOU GET THERE -- JOSH BILLINGS
 Job cpu time:  0 days  0 hours  0 minutes 12.1 seconds.
 File lengths (MBytes):  RWF=      5 Int=      0 D2E=      0 Chk=      1 Scr=      1
 Normal termination of Gaussian 09 at Thu Mar 17 09:05:01 2022.
 Link1:  Proceeding to internal job step number  2.
 ----------------------------------------------------------------------
 #N Geom=AllCheck Guess=TCheck SCRF=Check GenChk RM062X/6-311++G(d,p) F
 req
 ----------------------------------------------------------------------
 1/10=4,18=20,29=7,30=1,38=1,40=1,112=-986920/1,3;
 2/12=2,40=1/2;
 3/5=4,6=6,7=1111,11=2,14=-4,16=1,25=1,30=1,70=2,71=2,74=-55,116=1/1,2,3;
 4/5=101/1;
 5/5=2,98=1/2;
 8/6=4,10=90,11=11/1;
 11/6=1,8=1,9=11,15=111,16=1/1,2,10;
 10/6=1/2;
 6/7=2,8=2,9=2,10=2,18=1,28=1/1;
 7/8=2001,10=1,25=1/1,2,3,16;
 1/10=4,18=20,30=1/3;
 99/8=20/99;
 --------
 [H][H]_1
 --------
 Redundant internal coordinates taken from checkpoint file:
 [H][H].chk
 Charge =  0 Multiplicity = 1
 H,0,-0.3701377557,0.,0.
 H,0,0.3701377557,0.,0.
 Recover connectivity data from disk.

 GradGradGradGradGradGradGradGradGradGradGradGradGradGradGradGradGradGrad
 Berny optimization.
 Initialization pass.
                           ----------------------------
                           !    Initial Parameters    !
                           ! (Angstroms and Degrees)  !
 --------------------------                            --------------------------
 ! Name  Definition              Value          Derivative Info.                !
 --------------------------------------------------------------------------------
 ! R1    R(1,2)                  0.7403         calculate D2E/DX2 analytically  !
 --------------------------------------------------------------------------------
 Trust Radius=3.00D-01 FncErr=1.00D-07 GrdErr=1.00D-07
 Number of steps in this run=   2 maximum allowed number of steps=   2.
 GradGradGradGradGradGradGradGradGradGradGradGradGradGradGradGradGradGrad

                          Input orientation:                          
 ---------------------------------------------------------------------
 Center     Atomic      Atomic             Coordinates (Angstroms)
 Number     Number       Type             X           Y           Z
 ---------------------------------------------------------------------
      1          1           0       -0.370138    0.000000    0.000000
      2          1           0        0.370138    0.000000    0.000000
 ---------------------------------------------------------------------
 Stoichiometry    H2
 Framework group  D*H[C*(H.H)]
 Deg. of freedom     1
 Full point group                 D*H     NOp   8
 Largest Abelian subgroup         D2H     NOp   8
 Largest concise Abelian subgroup C2      NOp   2
                         Standard orientation:                         
 ---------------------------------------------------------------------
 Center     Atomic      Atomic             Coordinates (Angstroms)
 Number     Number       Type             X           Y           Z
 ---------------------------------------------------------------------
      1          1           0        0.000000    0.000000    0.370138
      2          1           0        0.000000    0.000000   -0.370138
 ---------------------------------------------------------------------
 Rotational constants (GHZ):      0.0000000   1830.1019451   1830.1019451
 Standard basis: 6-311++G(d,p) (5D, 7F)
 There are     5 symmetry adapted basis functions of AG  symmetry.
 There are     0 symmetry adapted basis functions of B1G symmetry.
 There are     1 symmetry adapted basis functions of B2G symmetry.
 There are     1 symmetry adapted basis functions of B3G symmetry.
 There are     0 symmetry adapted basis functions of AU  symmetry.
 There are     5 symmetry adapted basis functions of B1U symmetry.
 There are     1 symmetry adapted basis functions of B2U symmetry.
 There are     1 symmetry adapted basis functions of B3U symmetry.
 Integral buffers will be    131072 words long.
 Raffenetti 2 integral format.
 Two-electron integral symmetry is turned on.
    14 basis functions,    18 primitive gaussians,    14 cartesian basis functions
     1 alpha electrons        1 beta electrons
       nuclear repulsion energy         0.7148381927 Hartrees.
 NAtoms=    2 NActive=    2 NUniq=    1 SFac= 3.00D+00 NAtFMM=   80 NAOKFM=F Big=F
 One-electron integrals computed using PRISM.
 NBasis=    14 RedAO= T  NBF=     5     0     1     1     0     5     1     1
 NBsUse=    14 1.00D-06 NBFU=     5     0     1     1     0     5     1     1
 Initial guess read from the checkpoint file:  [H][H].chk
 B after Tr=     0.000000    0.000000    0.000000
         Rot=    1.000000    0.000000    0.000000    0.000000 Ang=   0.00 deg.
 Initial guess orbital symmetries:
       Occupied  (SGG)
       Virtual   (SGG) (SGU) (SGU) (SGG) (SGU) (PIU) (PIU) (SGG)
                 (PIG) (PIG) (SGU) (SGG) (SGU)
 Requested convergence on RMS density matrix=1.00D-08 within 128 cycles.
 Requested convergence on MAX density matrix=1.00D-06.
 Requested convergence on             energy=1.00D-06.
 No special actions if energy rises.
 Keep R1 ints in memory in canonical form, NReq=901098.
 SCF Done:  E(RM062X) =  -1.16829956291     A.U. after    1 cycles
             Convg  =    0.1687D-09             -V/T =  2.0238
 Range of M.O.s used for correlation:     1    14
 NBasis=    14 NAE=     1 NBE=     1 NFC=     0 NFV=     0
 NROrb=     14 NOA=     1 NOB=     1 NVA=    13 NVB=    13
 Symmetrizing basis deriv contribution to polar:
 IMax=3 JMax=2 DiffMx= 0.00D+00
 G2DrvN: will do     3 centers at a time, making    1 passes doing MaxLOS=1.
 Calling FoFCou, ICntrl=  3107 FMM=F I1Cent=   0 AccDes= 0.00D+00.
 FoFDir/FoFCou used for L=0 through L=1.
 End of G2Drv Frequency-dependent properties file   721 does not exist.
 End of G2Drv Frequency-dependent properties file   722 does not exist.
          IDoAtm=11
          Differentiating once with respect to electric field.
                with respect to dipole field.
          Differentiating once with respect to nuclear coordinates.
          Keep R1 ints in memory in canonical form, NReq=806573.
          There are     6 degrees of freedom in the 1st order CPHF.  IDoFFX=4.
      6 vectors produced by pass  0 Test12= 2.17D-16 1.67D-08 XBig12= 2.52D+00 1.14D+00.
 AX will form     6 AO Fock derivatives at one time.
      2 vectors produced by pass  1 Test12= 2.17D-16 1.67D-08 XBig12= 1.41D-02 1.01D-01.
      2 vectors produced by pass  2 Test12= 2.17D-16 1.67D-08 XBig12= 1.01D-05 2.92D-03.
      2 vectors produced by pass  3 Test12= 2.17D-16 1.67D-08 XBig12= 6.66D-08 2.52D-04.
      1 vectors produced by pass  4 Test12= 2.17D-16 1.67D-08 XBig12= 7.94D-13 5.38D-07.
 Inverted reduced A of dimension    13 with in-core refinement.
 Isotropic polarizability for W=    0.000000        2.92 Bohr**3.
 End of Minotr Frequency-dependent properties file   721 does not exist.
 End of Minotr Frequency-dependent properties file   722 does not exist.

 **********************************************************************

            Population analysis using the SCF density.

 **********************************************************************

 Orbital symmetries:
       Occupied  (SGG)
       Virtual   (SGG) (SGU) (SGU) (SGG) (SGU) (PIU) (PIU) (SGG)
                 (PIG) (PIG) (SGU) (SGG) (SGU)
 The electronic state is 1-SGG.
 Alpha  occ. eigenvalues --   -0.49631
 Alpha virt. eigenvalues --    0.03308   0.03367   0.18571   0.38448   0.65513
 Alpha virt. eigenvalues --    1.24410   1.24410   1.66380   1.86845   1.86845
 Alpha virt. eigenvalues --    2.15068   2.59351   3.79841
          Condensed to atoms (all electrons):
              1          2
     1  H    0.583007   0.416993
     2  H    0.416993   0.583007
 Mulliken atomic charges:
              1
     1  H    0.000000
     2  H    0.000000
 Sum of Mulliken atomic charges =   0.00000
 Mulliken charges with hydrogens summed into heavy atoms:
              1
 Sum of Mulliken charges with hydrogens summed into heavy atoms =   0.00000
 APT atomic charges:
              1
     1  H    0.000000
     2  H    0.000000
 Sum of APT charges=   0.00000
 APT Atomic charges with hydrogens summed into heavy atoms:
              1
     1  H    0.000000
     2  H    0.000000
 Sum of APT charges=   0.00000
 Electronic spatial extent (au):  <R**2>=              5.1864
 Charge=              0.0000 electrons
 Dipole moment (field-independent basis, Debye):
    X=              0.0000    Y=              0.0000    Z=              0.0000  Tot=              0.0000
 Quadrupole moment (field-independent basis, Debye-Ang):
   XX=             -2.0764   YY=             -2.0764   ZZ=             -1.5070
   XY=              0.0000   XZ=              0.0000   YZ=              0.0000
 Traceless Quadrupole moment (field-independent basis, Debye-Ang):
   XX=             -0.1898   YY=             -0.1898   ZZ=              0.3796
   XY=              0.0000   XZ=              0.0000   YZ=              0.0000
 Octapole moment (field-independent basis, Debye-Ang**2):
  XXX=              0.0000  YYY=              0.0000  ZZZ=              0.0000  XYY=              0.0000
  XXY=              0.0000  XXZ=              0.0000  XZZ=              0.0000  YZZ=              0.0000
  YYZ=              0.0000  XYZ=              0.0000
 Hexadecapole moment (field-independent basis, Debye-Ang**3):
 XXXX=             -2.0965 YYYY=             -2.0965 ZZZZ=             -2.9510 XXXY=              0.0000
 XXXZ=              0.0000 YYYX=              0.0000 YYYZ=              0.0000 ZZZX=              0.0000
 ZZZY=              0.0000 XXYY=             -0.6988 XXZZ=             -0.8579 YYZZ=             -0.8579
 XXYZ=              0.0000 YYXZ=              0.0000 ZZXY=              0.0000
 N-N= 7.148381926502D-01 E-N=-3.648091572454D+00  KE= 1.141135227113D+00
 Symmetry AG   KE= 1.141135227113D+00
 Symmetry B1G  KE= 0.000000000000D+00
 Symmetry B2G  KE= 3.113321209287D-34
 Symmetry B3G  KE= 3.113321209287D-34
 Symmetry AU   KE= 0.000000000000D+00
 Symmetry B1U  KE= 4.300812985799D-32
 Symmetry B2U  KE= 6.284919262624D-35
 Symmetry B3U  KE= 6.284919262624D-35
  Exact polarizability:   1.054   0.000   1.054   0.000   0.000   6.650
 Approx polarizability:   1.017   0.000   1.017   0.000   0.000   6.364
 Calling FoFJK, ICntrl=    100127 FMM=F ISym2X=1 I1Cent= 0 IOpClX= 0 NMat=1 NMatS=1 NMatT=0.
 Full mass-weighted force constant matrix:
 Low frequencies --- -728.4235 -728.4235   -0.0001   -0.0001   -0.0001 4468.7577
 Diagonal vibrational polarizability:
        0.0000000       0.0000000       0.0000000

 rotorrotorrotorrotorrotorrotorrotorrotorrotorrotorrotor

           Hindered Internal Rotation Analysis

 rotorrotorrotorrotorrotorrotorrotorrotorrotorrotorrotor

 Internal coordinate list sorted
 Checking for planar centers
 Checking for ring deformation
 Checking reduced barrier height
 Cut-off : V/RT =     33.756
 Number of internal rotation degrees of freedom =             0
 No hindered rotor corrections are necessary.

 Harmonic frequencies (cm**-1), IR intensities (KM/Mole), Raman scattering
 activities (A**4/AMU), depolarization ratios for plane and unpolarized
 incident light, reduced masses (AMU), force constants (mDyne/A),
 and normal coordinates:
                     1
                    SGG
 Frequencies --  4468.7577
 Red. masses --     1.0078
 Frc consts  --    11.8579
 IR Inten    --     0.0000
  Atom  AN      X      Y      Z
     1   1     0.00   0.00   0.71
     2   1     0.00   0.00  -0.71

 -------------------
 - Thermochemistry -
 -------------------
 Temperature   298.150 Kelvin.  Pressure   0.987 Atm.
 Atom     1 has atomic number  1 and mass   1.00783
 Atom     2 has atomic number  1 and mass   1.00783
 Molecular mass:     2.01565 amu.
 Principal axes and moments of inertia in atomic units:
                           1         2         3
     Eigenvalues --     0.00000   0.98614   0.98614
           X            0.00000   1.00000   0.00000
           Y            0.00000   0.00000   1.00000
           Z            1.00000   0.00000   0.00000
 This molecule is a prolate symmetric top.
 Rotational symmetry number  2.
 Rotational temperature (Kelvin)     87.83094
 Rotational constant (GHZ):        1830.101945
 Zero-point vibrational energy      26729.1 (Joules/Mol)
                                    6.38841 (Kcal/Mol)
 Vibrational temperatures:   6429.54
          (Kelvin)
 
 Zero-point correction=                           0.010181 (Hartree/Particle)
 Thermal correction to Energy=                    0.012541
 Thermal correction to Enthalpy=                  0.013485
 Thermal correction to Gibbs Free Energy=        -0.001313
 Sum of electronic and zero-point Energies=             -1.158119
 Sum of electronic and thermal Energies=                -1.155759
 Sum of electronic and thermal Enthalpies=              -1.154814
 Sum of electronic and thermal Free Energies=           -1.169612
 
                     E (Thermal)             CV                S
                      KCal/Mol        Cal/Mol-Kelvin    Cal/Mol-Kelvin
 Total                    7.870              4.968             31.145
 Electronic               0.000              0.000              0.000
 Translational            0.889              2.981             28.106
 Rotational               0.592              1.987              3.039
 Vibrational              6.388              0.000              0.000
                       Q            Log10(Q)             Ln(Q)
 Total Bot       0.401626D+01          0.603822          1.390352
 Total V=0       0.193443D+06          5.286553         12.172739
 Vib (Bot)       0.207620D-04         -4.682731        -10.782387
 Vib (V=0)       0.100000D+01          0.000000          0.000000
 Electronic      0.100000D+01          0.000000          0.000000
 Translational   0.113971D+06          5.056796         11.643703
 Rotational      0.169729D+01          0.229757          0.529036
 ***** Axes restored to original set *****
 -------------------------------------------------------------------
 Center     Atomic                   Forces (Hartrees/Bohr)
 Number     Number              X              Y              Z
 -------------------------------------------------------------------
      1        1           0.000027204    0.000000000    0.000000000
      2        1          -0.000027204    0.000000000    0.000000000
 -------------------------------------------------------------------
 Cartesian Forces:  Max     0.000027204 RMS     0.000015706

 GradGradGradGradGradGradGradGradGradGradGradGradGradGradGradGradGradGrad
 Berny optimization.
 Internal  Forces:  Max     0.000027204 RMS     0.000027204
 Search for a local minimum.
 Step number   1 out of a maximum of    2
 All quantities printed in internal units (Hartrees-Bohrs-Radians)
 Second derivative matrix not updated -- analytic derivatives used.
 The second derivative matrix:
                          R1
           R1           0.38082
     Eigenvalues ---    0.38082
 Angle between quadratic step and forces=   0.00 degrees.
 Linear search not attempted -- first point.
 Iteration  1 RMS(Cart)=  0.00005051 RMS(Int)=  0.00000000
 Iteration  2 RMS(Cart)=  0.00000000 RMS(Int)=  0.00000000
 ClnCor:  largest displacement from symmetrization is 2.19D-21 for atom     1.
 Variable       Old X    -DE/DX   Delta X   Delta X   Delta X     New X
                                 (Linear)    (Quad)   (Total)
    R1        1.39892  -0.00003   0.00000  -0.00007  -0.00007   1.39885
         Item               Value     Threshold  Converged?
 Maximum Force            0.000027     0.000450     YES
 RMS     Force            0.000027     0.000300     YES
 Maximum Displacement     0.000036     0.001800     YES
 RMS     Displacement     0.000051     0.001200     YES
 Predicted change in Energy=-9.716619D-10
 Optimization completed.
    -- Stationary point found.
                           ----------------------------
                           !   Optimized Parameters   !
                           ! (Angstroms and Degrees)  !
 --------------------------                            --------------------------
 ! Name  Definition              Value          Derivative Info.                !
 --------------------------------------------------------------------------------
 ! R1    R(1,2)                  0.7403         -DE/DX =    0.0                 !
 --------------------------------------------------------------------------------
 GradGradGradGradGradGradGradGradGradGradGradGradGradGradGradGradGradGrad

 1\1\GINC-LOCALHOST\Freq\RM062X\6-311++G(d,p)\H2\ROOT\17-Mar-2022\0\\#N
  Geom=AllCheck Guess=TCheck SCRF=Check GenChk RM062X/6-311++G(d,p) Fre
 q\\[H][H]_1\\0,1\H,-0.3701377557,0.,0.\H,0.3701377557,0.,0.\\Version=E
 M64L-G09RevA.01\State=1-SGG\HF=-1.1682996\RMSD=1.687e-10\RMSF=1.571e-0
 5\ZeroPoint=0.0101806\Thermal=0.012541\Dipole=0.,0.,0.\DipoleDeriv=0.,
 0.,0.,0.,0.,0.,0.,0.,0.,0.,0.,0.,0.,0.,0.,0.,0.,0.\Polar=6.6503981,0.,
 1.0539896,0.,0.,1.0539896\PG=D*H [C*(H1.H1)]\NImag=0\\0.38082039,0.,-0
 .01011846,0.,0.,-0.01011846,-0.38082039,0.,0.,0.38082039,0.,0.01011846
 ,0.,0.,-0.01011846,0.,0.,0.01011846,0.,0.,-0.01011846\\-0.00002720,0.,
 0.,0.00002720,0.,0.\\\@


 "TIGER, TIGER BURNING BRIGHT
 IN THE FOREST OF THE NIGHT.
 WHAT IMMORTAL HAND OR EYE
 CAN FRAME THY FEARFUL SYMMETRYE?"
                     - WILLIAM BLAKE
 Job cpu time:  0 days  0 hours  0 minutes  6.8 seconds.
 File lengths (MBytes):  RWF=      5 Int=      0 D2E=      0 Chk=      1 Scr=      1
 Normal termination of Gaussian 09 at Thu Mar 17 09:05:02 2022.
 Initial command:
 /software/g09/l1.exe /home/tmp/g16/Gau-3955148.inp -scrdir=/home/tmp/g16/
 Entering Link 1 = /software/g09/l1.exe PID=   3955712.
  
 Copyright (c) 1988,1990,1992,1993,1995,1998,2003,2009, Gaussian, Inc.
                  All Rights Reserved.
  
 This is part of the Gaussian(R) 09 program.  It is based on
 the Gaussian(R) 03 system (copyright 2003, Gaussian, Inc.),
 the Gaussian(R) 98 system (copyright 1998, Gaussian, Inc.),
 the Gaussian(R) 94 system (copyright 1995, Gaussian, Inc.),
 the Gaussian 92(TM) system (copyright 1992, Gaussian, Inc.),
 the Gaussian 90(TM) system (copyright 1990, Gaussian, Inc.),
 the Gaussian 88(TM) system (copyright 1988, Gaussian, Inc.),
 the Gaussian 86(TM) system (copyright 1986, Carnegie Mellon
 University), and the Gaussian 82(TM) system (copyright 1983,
 Carnegie Mellon University). Gaussian is a federally registered
 trademark of Gaussian, Inc.
  
 This software contains proprietary and confidential information,
 including trade secrets, belonging to Gaussian, Inc.
  
 This software is provided under written license and may be
 used, copied, transmitted, or stored only in accord with that
 written license.
  
 The following legend is applicable only to US Government
 contracts under FAR:
  
                    RESTRICTED RIGHTS LEGEND
  
 Use, reproduction and disclosure by the US Government is
 subject to restrictions as set forth in subparagraphs (a)
 and (c) of the Commercial Computer Software - Restricted
 Rights clause in FAR 52.227-19.
  
 Gaussian, Inc.
 340 Quinnipiac St., Bldg. 40, Wallingford CT 06492
  
  
 ---------------------------------------------------------------
 Warning -- This program may not be used in any manner that
 competes with the business of Gaussian, Inc. or will provide
 assistance to any competitor of Gaussian, Inc.  The licensee
 of this program is prohibited from giving any competitor of
 Gaussian, Inc. access to this program.  By using this program,
 the user acknowledges that Gaussian, Inc. is engaged in the
 business of creating and licensing software in the field of
 computational chemistry and represents and warrants to the
 licensee that it is not a competitor of Gaussian, Inc. and that
 it will not use this program in any manner prohibited above.
 ---------------------------------------------------------------
  

 Cite this work as:
 Gaussian 09, Revision A.01,
 M. J. Frisch, G. W. Trucks, H. B. Schlegel, G. E. Scuseria, 
 M. A. Robb, J. R. Cheeseman, G. Scalmani, V. Barone, B. Mennucci, 
 G. A. Petersson, H. Nakatsuji, M. Caricato, X. Li, H. P. Hratchian, 
 A. F. Izmaylov, J. Bloino, G. Zheng, J. L. Sonnenberg, M. Hada, 
 M. Ehara, K. Toyota, R. Fukuda, J. Hasegawa, M. Ishida, T. Nakajima, 
 Y. Honda, O. Kitao, H. Nakai, T. Vreven, J. A. Montgomery, Jr., 
 J. E. Peralta, F. Ogliaro, M. Bearpark, J. J. Heyd, E. Brothers, 
 K. N. Kudin, V. N. Staroverov, R. Kobayashi, J. Normand, 
 K. Raghavachari, A. Rendell, J. C. Burant, S. S. Iyengar, J. Tomasi, 
 M. Cossi, N. Rega, J. M. Millam, M. Klene, J. E. Knox, J. B. Cross, 
 V. Bakken, C. Adamo, J. Jaramillo, R. Gomperts, R. E. Stratmann, 
 O. Yazyev, A. J. Austin, R. Cammi, C. Pomelli, J. W. Ochterski, 
 R. L. Martin, K. Morokuma, V. G. Zakrzewski, G. A. Voth, 
 P. Salvador, J. J. Dannenberg, S. Dapprich, A. D. Daniels, 
 O. Farkas, J. B. Foresman, J. V. Ortiz, J. Cioslowski, 
 and D. J. Fox, Gaussian, Inc., Wallingford CT, 2009.
 
 ******************************************
 Gaussian 09:  EM64L-G09RevA.01  8-May-2009
                17-Mar-2022 
 ******************************************
 %chk=[H][H].chk
 ----------------------------------------------------------------------
 # freq=(readfc,hinderedrotor) temp=200 press=0.987 geom=allcheck gue
 ss=read
 ----------------------------------------------------------------------
 1/18=20,29=7,38=1,111=200000,112=-986920/1;
 2/12=2,40=1/2;
 7/8=2001,25=11/16;
 99/5=2,8=20/99;
 --------
 [H][H]_1
 --------
 Redundant internal coordinates taken from checkpoint file:
 [H][H].chk
 Charge =  0 Multiplicity = 1
 H,0,-0.3701377557,0.,0.
 H,0,0.3701377557,0.,0.
 Recover connectivity data from disk.
                          Input orientation:                          
 ---------------------------------------------------------------------
 Center     Atomic      Atomic             Coordinates (Angstroms)
 Number     Number       Type             X           Y           Z
 ---------------------------------------------------------------------
      1          1           0       -0.370138    0.000000    0.000000
      2          1           0        0.370138    0.000000    0.000000
 ---------------------------------------------------------------------
 Stoichiometry    H2
 Framework group  D*H[C*(H.H)]
 Deg. of freedom     1
 Full point group                 D*H     NOp   8
 Largest Abelian subgroup         D2H     NOp   8
 Largest concise Abelian subgroup C2      NOp   2
                         Standard orientation:                         
 ---------------------------------------------------------------------
 Center     Atomic      Atomic             Coordinates (Angstroms)
 Number     Number       Type             X           Y           Z
 ---------------------------------------------------------------------
      1          1           0        0.000000    0.000000    0.370138
      2          1           0        0.000000    0.000000   -0.370138
 ---------------------------------------------------------------------
 Rotational constants (GHZ):      0.0000000   1830.1019451   1830.1019451
 Electric field and nuclear coordinate derivatives read from checkpoint file.
 Rotating derivatives to standard orientation.
 Full mass-weighted force constant matrix:
 Low frequencies --- -728.4235 -728.4235   -0.0001   -0.0001   -0.0001 4468.7577
 Diagonal vibrational polarizability:
        0.0000000       0.0000000       0.0000000

 rotorrotorrotorrotorrotorrotorrotorrotorrotorrotorrotor

           Hindered Internal Rotation Analysis

 rotorrotorrotorrotorrotorrotorrotorrotorrotorrotorrotor

 Internal coordinate list sorted
 Checking for planar centers
 Checking for ring deformation
 Checking reduced barrier height
 Cut-off : V/RT =     33.756
 Number of internal rotation degrees of freedom =             0
 No hindered rotor corrections are necessary.

 Harmonic frequencies (cm**-1), IR intensities (KM/Mole), Raman scattering
 activities (A**4/AMU), depolarization ratios for plane and unpolarized
 incident light, reduced masses (AMU), force constants (mDyne/A),
 and normal coordinates:
                     1
                    SGG
 Frequencies --  4468.7577
 Red. masses --     1.0078
 Frc consts  --    11.8579
 IR Inten    --     0.0000
  Atom  AN      X      Y      Z
     1   1     0.00   0.00   0.71
     2   1     0.00   0.00  -0.71

 -------------------
 - Thermochemistry -
 -------------------
 Temperature   298.150 Kelvin.  Pressure   0.987 Atm.
 Atom     1 has atomic number  1 and mass   1.00783
 Atom     2 has atomic number  1 and mass   1.00783
 Molecular mass:     2.01565 amu.
 Principal axes and moments of inertia in atomic units:
                           1         2         3
     Eigenvalues --     0.00000   0.98614   0.98614
           X            0.00000   1.00000   0.00000
           Y            0.00000   0.00000   1.00000
           Z            1.00000   0.00000   0.00000
 This molecule is a prolate symmetric top.
 Rotational symmetry number  2.
 Rotational temperature (Kelvin)     87.83094
 Rotational constant (GHZ):        1830.101945
 Zero-point vibrational energy      26729.1 (Joules/Mol)
                                    6.38841 (Kcal/Mol)
 Vibrational temperatures:   6429.54
          (Kelvin)
 
 Zero-point correction=                           0.010181 (Hartree/Particle)
 Thermal correction to Energy=                    0.012541
 Thermal correction to Enthalpy=                  0.013485
 Thermal correction to Gibbs Free Energy=        -0.001313
 Sum of electronic and zero-point Energies=             -1.158119
 Sum of electronic and thermal Energies=                -1.155759
 Sum of electronic and thermal Enthalpies=              -1.154814
 Sum of electronic and thermal Free Energies=           -1.169612
 
                     E (Thermal)             CV                S
                      KCal/Mol        Cal/Mol-Kelvin    Cal/Mol-Kelvin
 Total                    7.870              4.968             31.145
 Electronic               0.000              0.000              0.000
 Translational            0.889              2.981             28.106
 Rotational               0.592              1.987              3.039
 Vibrational              6.388              0.000              0.000
                       Q            Log10(Q)             Ln(Q)
 Total Bot       0.401626D+01          0.603822          1.390352
 Total V=0       0.193443D+06          5.286553         12.172739
 Vib (Bot)       0.207620D-04         -4.682731        -10.782387
 Vib (V=0)       0.100000D+01          0.000000          0.000000
 Electronic      0.100000D+01          0.000000          0.000000
 Translational   0.113971D+06          5.056796         11.643703
 Rotational      0.169729D+01          0.229757          0.529036
 ***** Axes restored to original set *****
 -------------------------------------------------------------------
 Center     Atomic                   Forces (Hartrees/Bohr)
 Number     Number              X              Y              Z
 -------------------------------------------------------------------
      1        1           0.000027204    0.000000000    0.000000000
      2        1          -0.000027204    0.000000000    0.000000000
 -------------------------------------------------------------------
 Cartesian Forces:  Max     0.000027204 RMS     0.000015706

 This type of calculation cannot be archived.


 "TIGER, TIGER BURNING BRIGHT
 IN THE FOREST OF THE NIGHT.
 WHAT IMMORTAL HAND OR EYE
 CAN FRAME THY FEARFUL SYMMETRYE?"
                     - WILLIAM BLAKE
 Job cpu time:  0 days  0 hours  0 minutes  0.2 seconds.
 File lengths (MBytes):  RWF=      5 Int=      0 D2E=      0 Chk=      1 Scr=      1
 Normal termination of Gaussian 09 at Thu Mar 17 09:05:02 2022.
 Initial command:
 /software/g09/l1.exe /home/tmp/g16/Gau-3955148.inp -scrdir=/home/tmp/g16/
 Entering Link 1 = /software/g09/l1.exe PID=   3955713.
  
 Copyright (c) 1988,1990,1992,1993,1995,1998,2003,2009, Gaussian, Inc.
                  All Rights Reserved.
  
 This is part of the Gaussian(R) 09 program.  It is based on
 the Gaussian(R) 03 system (copyright 2003, Gaussian, Inc.),
 the Gaussian(R) 98 system (copyright 1998, Gaussian, Inc.),
 the Gaussian(R) 94 system (copyright 1995, Gaussian, Inc.),
 the Gaussian 92(TM) system (copyright 1992, Gaussian, Inc.),
 the Gaussian 90(TM) system (copyright 1990, Gaussian, Inc.),
 the Gaussian 88(TM) system (copyright 1988, Gaussian, Inc.),
 the Gaussian 86(TM) system (copyright 1986, Carnegie Mellon
 University), and the Gaussian 82(TM) system (copyright 1983,
 Carnegie Mellon University). Gaussian is a federally registered
 trademark of Gaussian, Inc.
  
 This software contains proprietary and confidential information,
 including trade secrets, belonging to Gaussian, Inc.
  
 This software is provided under written license and may be
 used, copied, transmitted, or stored only in accord with that
 written license.
  
 The following legend is applicable only to US Government
 contracts under FAR:
  
                    RESTRICTED RIGHTS LEGEND
  
 Use, reproduction and disclosure by the US Government is
 subject to restrictions as set forth in subparagraphs (a)
 and (c) of the Commercial Computer Software - Restricted
 Rights clause in FAR 52.227-19.
  
 Gaussian, Inc.
 340 Quinnipiac St., Bldg. 40, Wallingford CT 06492
  
  
 ---------------------------------------------------------------
 Warning -- This program may not be used in any manner that
 competes with the business of Gaussian, Inc. or will provide
 assistance to any competitor of Gaussian, Inc.  The licensee
 of this program is prohibited from giving any competitor of
 Gaussian, Inc. access to this program.  By using this program,
 the user acknowledges that Gaussian, Inc. is engaged in the
 business of creating and licensing software in the field of
 computational chemistry and represents and warrants to the
 licensee that it is not a competitor of Gaussian, Inc. and that
 it will not use this program in any manner prohibited above.
 ---------------------------------------------------------------
  

 Cite this work as:
 Gaussian 09, Revision A.01,
 M. J. Frisch, G. W. Trucks, H. B. Schlegel, G. E. Scuseria, 
 M. A. Robb, J. R. Cheeseman, G. Scalmani, V. Barone, B. Mennucci, 
 G. A. Petersson, H. Nakatsuji, M. Caricato, X. Li, H. P. Hratchian, 
 A. F. Izmaylov, J. Bloino, G. Zheng, J. L. Sonnenberg, M. Hada, 
 M. Ehara, K. Toyota, R. Fukuda, J. Hasegawa, M. Ishida, T. Nakajima, 
 Y. Honda, O. Kitao, H. Nakai, T. Vreven, J. A. Montgomery, Jr., 
 J. E. Peralta, F. Ogliaro, M. Bearpark, J. J. Heyd, E. Brothers, 
 K. N. Kudin, V. N. Staroverov, R. Kobayashi, J. Normand, 
 K. Raghavachari, A. Rendell, J. C. Burant, S. S. Iyengar, J. Tomasi, 
 M. Cossi, N. Rega, J. M. Millam, M. Klene, J. E. Knox, J. B. Cross, 
 V. Bakken, C. Adamo, J. Jaramillo, R. Gomperts, R. E. Stratmann, 
 O. Yazyev, A. J. Austin, R. Cammi, C. Pomelli, J. W. Ochterski, 
 R. L. Martin, K. Morokuma, V. G. Zakrzewski, G. A. Voth, 
 P. Salvador, J. J. Dannenberg, S. Dapprich, A. D. Daniels, 
 O. Farkas, J. B. Foresman, J. V. Ortiz, J. Cioslowski, 
 and D. J. Fox, Gaussian, Inc., Wallingford CT, 2009.
 
 ******************************************
 Gaussian 09:  EM64L-G09RevA.01  8-May-2009
                17-Mar-2022 
 ******************************************
 %chk=[H][H].chk
 ----------------------------------------------------------------------
 # freq=(readfc,hinderedrotor) temp=250 press=0.987 geom=allcheck gue
 ss=read
 ----------------------------------------------------------------------
 1/18=20,29=7,38=1,111=250000,112=-986920/1;
 2/12=2,40=1/2;
 7/8=2001,25=11/16;
 99/5=2,8=20/99;
 --------
 [H][H]_1
 --------
 Redundant internal coordinates taken from checkpoint file:
 [H][H].chk
 Charge =  0 Multiplicity = 1
 H,0,-0.3701377557,0.,0.
 H,0,0.3701377557,0.,0.
 Recover connectivity data from disk.
                          Input orientation:                          
 ---------------------------------------------------------------------
 Center     Atomic      Atomic             Coordinates (Angstroms)
 Number     Number       Type             X           Y           Z
 ---------------------------------------------------------------------
      1          1           0       -0.370138    0.000000    0.000000
      2          1           0        0.370138    0.000000    0.000000
 ---------------------------------------------------------------------
 Stoichiometry    H2
 Framework group  D*H[C*(H.H)]
 Deg. of freedom     1
 Full point group                 D*H     NOp   8
 Largest Abelian subgroup         D2H     NOp   8
 Largest concise Abelian subgroup C2      NOp   2
                         Standard orientation:                         
 ---------------------------------------------------------------------
 Center     Atomic      Atomic             Coordinates (Angstroms)
 Number     Number       Type             X           Y           Z
 ---------------------------------------------------------------------
      1          1           0        0.000000    0.000000    0.370138
      2          1           0        0.000000    0.000000   -0.370138
 ---------------------------------------------------------------------
 Rotational constants (GHZ):      0.0000000   1830.1019451   1830.1019451
 Electric field and nuclear coordinate derivatives read from checkpoint file.
 Rotating derivatives to standard orientation.
 Full mass-weighted force constant matrix:
 Low frequencies --- -728.4235 -728.4235   -0.0001   -0.0001   -0.0001 4468.7577
 Diagonal vibrational polarizability:
        0.0000000       0.0000000       0.0000000

 rotorrotorrotorrotorrotorrotorrotorrotorrotorrotorrotor

           Hindered Internal Rotation Analysis

 rotorrotorrotorrotorrotorrotorrotorrotorrotorrotorrotor

 Internal coordinate list sorted
 Checking for planar centers
 Checking for ring deformation
 Checking reduced barrier height
 Cut-off : V/RT =     33.756
 Number of internal rotation degrees of freedom =             0
 No hindered rotor corrections are necessary.

 Harmonic frequencies (cm**-1), IR intensities (KM/Mole), Raman scattering
 activities (A**4/AMU), depolarization ratios for plane and unpolarized
 incident light, reduced masses (AMU), force constants (mDyne/A),
 and normal coordinates:
                     1
                    SGG
 Frequencies --  4468.7577
 Red. masses --     1.0078
 Frc consts  --    11.8579
 IR Inten    --     0.0000
  Atom  AN      X      Y      Z
     1   1     0.00   0.00   0.71
     2   1     0.00   0.00  -0.71

 -------------------
 - Thermochemistry -
 -------------------
 Temperature   298.150 Kelvin.  Pressure   0.987 Atm.
 Atom     1 has atomic number  1 and mass   1.00783
 Atom     2 has atomic number  1 and mass   1.00783
 Molecular mass:     2.01565 amu.
 Principal axes and moments of inertia in atomic units:
                           1         2         3
     Eigenvalues --     0.00000   0.98614   0.98614
           X            0.00000   1.00000   0.00000
           Y            0.00000   0.00000   1.00000
           Z            1.00000   0.00000   0.00000
 This molecule is a prolate symmetric top.
 Rotational symmetry number  2.
 Rotational temperature (Kelvin)     87.83094
 Rotational constant (GHZ):        1830.101945
 Zero-point vibrational energy      26729.1 (Joules/Mol)
                                    6.38841 (Kcal/Mol)
 Vibrational temperatures:   6429.54
          (Kelvin)
 
 Zero-point correction=                           0.010181 (Hartree/Particle)
 Thermal correction to Energy=                    0.012541
 Thermal correction to Enthalpy=                  0.013485
 Thermal correction to Gibbs Free Energy=        -0.001313
 Sum of electronic and zero-point Energies=             -1.158119
 Sum of electronic and thermal Energies=                -1.155759
 Sum of electronic and thermal Enthalpies=              -1.154814
 Sum of electronic and thermal Free Energies=           -1.169612
 
                     E (Thermal)             CV                S
                      KCal/Mol        Cal/Mol-Kelvin    Cal/Mol-Kelvin
 Total                    7.870              4.968             31.145
 Electronic               0.000              0.000              0.000
 Translational            0.889              2.981             28.106
 Rotational               0.592              1.987              3.039
 Vibrational              6.388              0.000              0.000
                       Q            Log10(Q)             Ln(Q)
 Total Bot       0.401626D+01          0.603822          1.390352
 Total V=0       0.193443D+06          5.286553         12.172739
 Vib (Bot)       0.207620D-04         -4.682731        -10.782387
 Vib (V=0)       0.100000D+01          0.000000          0.000000
 Electronic      0.100000D+01          0.000000          0.000000
 Translational   0.113971D+06          5.056796         11.643703
 Rotational      0.169729D+01          0.229757          0.529036
 ***** Axes restored to original set *****
 -------------------------------------------------------------------
 Center     Atomic                   Forces (Hartrees/Bohr)
 Number     Number              X              Y              Z
 -------------------------------------------------------------------
      1        1           0.000027204    0.000000000    0.000000000
      2        1          -0.000027204    0.000000000    0.000000000
 -------------------------------------------------------------------
 Cartesian Forces:  Max     0.000027204 RMS     0.000015706

 This type of calculation cannot be archived.


 "TIGER, TIGER BURNING BRIGHT
 IN THE FOREST OF THE NIGHT.
 WHAT IMMORTAL HAND OR EYE
 CAN FRAME THY FEARFUL SYMMETRYE?"
                     - WILLIAM BLAKE
 Job cpu time:  0 days  0 hours  0 minutes  0.2 seconds.
 File lengths (MBytes):  RWF=      5 Int=      0 D2E=      0 Chk=      1 Scr=      1
 Normal termination of Gaussian 09 at Thu Mar 17 09:05:02 2022.
 Initial command:
 /software/g09/l1.exe /home/tmp/g16/Gau-3955148.inp -scrdir=/home/tmp/g16/
 Entering Link 1 = /software/g09/l1.exe PID=   3955714.
  
 Copyright (c) 1988,1990,1992,1993,1995,1998,2003,2009, Gaussian, Inc.
                  All Rights Reserved.
  
 This is part of the Gaussian(R) 09 program.  It is based on
 the Gaussian(R) 03 system (copyright 2003, Gaussian, Inc.),
 the Gaussian(R) 98 system (copyright 1998, Gaussian, Inc.),
 the Gaussian(R) 94 system (copyright 1995, Gaussian, Inc.),
 the Gaussian 92(TM) system (copyright 1992, Gaussian, Inc.),
 the Gaussian 90(TM) system (copyright 1990, Gaussian, Inc.),
 the Gaussian 88(TM) system (copyright 1988, Gaussian, Inc.),
 the Gaussian 86(TM) system (copyright 1986, Carnegie Mellon
 University), and the Gaussian 82(TM) system (copyright 1983,
 Carnegie Mellon University). Gaussian is a federally registered
 trademark of Gaussian, Inc.
  
 This software contains proprietary and confidential information,
 including trade secrets, belonging to Gaussian, Inc.
  
 This software is provided under written license and may be
 used, copied, transmitted, or stored only in accord with that
 written license.
  
 The following legend is applicable only to US Government
 contracts under FAR:
  
                    RESTRICTED RIGHTS LEGEND
  
 Use, reproduction and disclosure by the US Government is
 subject to restrictions as set forth in subparagraphs (a)
 and (c) of the Commercial Computer Software - Restricted
 Rights clause in FAR 52.227-19.
  
 Gaussian, Inc.
 340 Quinnipiac St., Bldg. 40, Wallingford CT 06492
  
  
 ---------------------------------------------------------------
 Warning -- This program may not be used in any manner that
 competes with the business of Gaussian, Inc. or will provide
 assistance to any competitor of Gaussian, Inc.  The licensee
 of this program is prohibited from giving any competitor of
 Gaussian, Inc. access to this program.  By using this program,
 the user acknowledges that Gaussian, Inc. is engaged in the
 business of creating and licensing software in the field of
 computational chemistry and represents and warrants to the
 licensee that it is not a competitor of Gaussian, Inc. and that
 it will not use this program in any manner prohibited above.
 ---------------------------------------------------------------
  

 Cite this work as:
 Gaussian 09, Revision A.01,
 M. J. Frisch, G. W. Trucks, H. B. Schlegel, G. E. Scuseria, 
 M. A. Robb, J. R. Cheeseman, G. Scalmani, V. Barone, B. Mennucci, 
 G. A. Petersson, H. Nakatsuji, M. Caricato, X. Li, H. P. Hratchian, 
 A. F. Izmaylov, J. Bloino, G. Zheng, J. L. Sonnenberg, M. Hada, 
 M. Ehara, K. Toyota, R. Fukuda, J. Hasegawa, M. Ishida, T. Nakajima, 
 Y. Honda, O. Kitao, H. Nakai, T. Vreven, J. A. Montgomery, Jr., 
 J. E. Peralta, F. Ogliaro, M. Bearpark, J. J. Heyd, E. Brothers, 
 K. N. Kudin, V. N. Staroverov, R. Kobayashi, J. Normand, 
 K. Raghavachari, A. Rendell, J. C. Burant, S. S. Iyengar, J. Tomasi, 
 M. Cossi, N. Rega, J. M. Millam, M. Klene, J. E. Knox, J. B. Cross, 
 V. Bakken, C. Adamo, J. Jaramillo, R. Gomperts, R. E. Stratmann, 
 O. Yazyev, A. J. Austin, R. Cammi, C. Pomelli, J. W. Ochterski, 
 R. L. Martin, K. Morokuma, V. G. Zakrzewski, G. A. Voth, 
 P. Salvador, J. J. Dannenberg, S. Dapprich, A. D. Daniels, 
 O. Farkas, J. B. Foresman, J. V. Ortiz, J. Cioslowski, 
 and D. J. Fox, Gaussian, Inc., Wallingford CT, 2009.
 
 ******************************************
 Gaussian 09:  EM64L-G09RevA.01  8-May-2009
                17-Mar-2022 
 ******************************************
 %chk=[H][H].chk
 ----------------------------------------------------------------------
 # freq=(readfc,hinderedrotor) temp=300 press=0.987 geom=allcheck gue
 ss=read
 ----------------------------------------------------------------------
 1/18=20,29=7,38=1,111=300000,112=-986920/1;
 2/12=2,40=1/2;
 7/8=2001,25=11/16;
 99/5=2,8=20/99;
 --------
 [H][H]_1
 --------
 Redundant internal coordinates taken from checkpoint file:
 [H][H].chk
 Charge =  0 Multiplicity = 1
 H,0,-0.3701377557,0.,0.
 H,0,0.3701377557,0.,0.
 Recover connectivity data from disk.
                          Input orientation:                          
 ---------------------------------------------------------------------
 Center     Atomic      Atomic             Coordinates (Angstroms)
 Number     Number       Type             X           Y           Z
 ---------------------------------------------------------------------
      1          1           0       -0.370138    0.000000    0.000000
      2          1           0        0.370138    0.000000    0.000000
 ---------------------------------------------------------------------
 Stoichiometry    H2
 Framework group  D*H[C*(H.H)]
 Deg. of freedom     1
 Full point group                 D*H     NOp   8
 Largest Abelian subgroup         D2H     NOp   8
 Largest concise Abelian subgroup C2      NOp   2
                         Standard orientation:                         
 ---------------------------------------------------------------------
 Center     Atomic      Atomic             Coordinates (Angstroms)
 Number     Number       Type             X           Y           Z
 ---------------------------------------------------------------------
      1          1           0        0.000000    0.000000    0.370138
      2          1           0        0.000000    0.000000   -0.370138
 ---------------------------------------------------------------------
 Rotational constants (GHZ):      0.0000000   1830.1019451   1830.1019451
 Electric field and nuclear coordinate derivatives read from checkpoint file.
 Rotating derivatives to standard orientation.
 Full mass-weighted force constant matrix:
 Low frequencies --- -728.4235 -728.4235   -0.0001   -0.0001   -0.0001 4468.7577
 Diagonal vibrational polarizability:
        0.0000000       0.0000000       0.0000000

 rotorrotorrotorrotorrotorrotorrotorrotorrotorrotorrotor

           Hindered Internal Rotation Analysis

 rotorrotorrotorrotorrotorrotorrotorrotorrotorrotorrotor

 Internal coordinate list sorted
 Checking for planar centers
 Checking for ring deformation
 Checking reduced barrier height
 Cut-off : V/RT =     33.756
 Number of internal rotation degrees of freedom =             0
 No hindered rotor corrections are necessary.

 Harmonic frequencies (cm**-1), IR intensities (KM/Mole), Raman scattering
 activities (A**4/AMU), depolarization ratios for plane and unpolarized
 incident light, reduced masses (AMU), force constants (mDyne/A),
 and normal coordinates:
                     1
                    SGG
 Frequencies --  4468.7577
 Red. masses --     1.0078
 Frc consts  --    11.8579
 IR Inten    --     0.0000
  Atom  AN      X      Y      Z
     1   1     0.00   0.00   0.71
     2   1     0.00   0.00  -0.71

 -------------------
 - Thermochemistry -
 -------------------
 Temperature   298.150 Kelvin.  Pressure   0.987 Atm.
 Atom     1 has atomic number  1 and mass   1.00783
 Atom     2 has atomic number  1 and mass   1.00783
 Molecular mass:     2.01565 amu.
 Principal axes and moments of inertia in atomic units:
                           1         2         3
     Eigenvalues --     0.00000   0.98614   0.98614
           X            0.00000   1.00000   0.00000
           Y            0.00000   0.00000   1.00000
           Z            1.00000   0.00000   0.00000
 This molecule is a prolate symmetric top.
 Rotational symmetry number  2.
 Rotational temperature (Kelvin)     87.83094
 Rotational constant (GHZ):        1830.101945
 Zero-point vibrational energy      26729.1 (Joules/Mol)
                                    6.38841 (Kcal/Mol)
 Vibrational temperatures:   6429.54
          (Kelvin)
 
 Zero-point correction=                           0.010181 (Hartree/Particle)
 Thermal correction to Energy=                    0.012541
 Thermal correction to Enthalpy=                  0.013485
 Thermal correction to Gibbs Free Energy=        -0.001313
 Sum of electronic and zero-point Energies=             -1.158119
 Sum of electronic and thermal Energies=                -1.155759
 Sum of electronic and thermal Enthalpies=              -1.154814
 Sum of electronic and thermal Free Energies=           -1.169612
 
                     E (Thermal)             CV                S
                      KCal/Mol        Cal/Mol-Kelvin    Cal/Mol-Kelvin
 Total                    7.870              4.968             31.145
[...]
 K. N. Kudin, V. N. Staroverov, R. Kobayashi, J. Normand, 
 K. Raghavachari, A. Rendell, J. C. Burant, S. S. Iyengar, J. Tomasi, 
 M. Cossi, N. Rega, J. M. Millam, M. Klene, J. E. Knox, J. B. Cross, 
 V. Bakken, C. Adamo, J. Jaramillo, R. Gomperts, R. E. Stratmann, 
 O. Yazyev, A. J. Austin, R. Cammi, C. Pomelli, J. W. Ochterski, 
 R. L. Martin, K. Morokuma, V. G. Zakrzewski, G. A. Voth, 
 P. Salvador, J. J. Dannenberg, S. Dapprich, A. D. Daniels, 
 O. Farkas, J. B. Foresman, J. V. Ortiz, J. Cioslowski, 
 and D. J. Fox, Gaussian, Inc., Wallingford CT, 2009.
 
 ******************************************
 Gaussian 09:  EM64L-G09RevA.01  8-May-2009
                17-Mar-2022 
 ******************************************
 %chk=[H][H].chk
 ----------------------------------------------------------------------
 # freq=(readfc,hinderedrotor) temp=4950 press=0.987 geom=allcheck gu
 ess=read
 ----------------------------------------------------------------------
 1/18=20,29=7,38=1,111=4950000,112=-986920/1;
 2/12=2,40=1/2;
 7/8=2001,25=11/16;
 99/5=2,8=20/99;
 --------
 [H][H]_1
 --------
 Redundant internal coordinates taken from checkpoint file:
 [H][H].chk
 Charge =  0 Multiplicity = 1
 H,0,-0.3701377557,0.,0.
 H,0,0.3701377557,0.,0.
 Recover connectivity data from disk.
                          Input orientation:                          
 ---------------------------------------------------------------------
 Center     Atomic      Atomic             Coordinates (Angstroms)
 Number     Number       Type             X           Y           Z
 ---------------------------------------------------------------------
      1          1           0       -0.370138    0.000000    0.000000
      2          1           0        0.370138    0.000000    0.000000
 ---------------------------------------------------------------------
 Stoichiometry    H2
 Framework group  D*H[C*(H.H)]
 Deg. of freedom     1
 Full point group                 D*H     NOp   8
 Largest Abelian subgroup         D2H     NOp   8
 Largest concise Abelian subgroup C2      NOp   2
                         Standard orientation:                         
 ---------------------------------------------------------------------
 Center     Atomic      Atomic             Coordinates (Angstroms)
 Number     Number       Type             X           Y           Z
 ---------------------------------------------------------------------
      1          1           0        0.000000    0.000000    0.370138
      2          1           0        0.000000    0.000000   -0.370138
 ---------------------------------------------------------------------
 Rotational constants (GHZ):      0.0000000   1830.1019451   1830.1019451
 Electric field and nuclear coordinate derivatives read from checkpoint file.
 Rotating derivatives to standard orientation.
 Full mass-weighted force constant matrix:
 Low frequencies --- -728.4235 -728.4235   -0.0001   -0.0001   -0.0001 4468.7577
 Diagonal vibrational polarizability:
        0.0000000       0.0000000       0.0000000

 rotorrotorrotorrotorrotorrotorrotorrotorrotorrotorrotor

           Hindered Internal Rotation Analysis

 rotorrotorrotorrotorrotorrotorrotorrotorrotorrotorrotor

 Internal coordinate list sorted
 Checking for planar centers
 Checking for ring deformation
 Checking reduced barrier height
 Cut-off : V/RT =     33.756
 Number of internal rotation degrees of freedom =             0
 No hindered rotor corrections are necessary.

 Harmonic frequencies (cm**-1), IR intensities (KM/Mole), Raman scattering
 activities (A**4/AMU), depolarization ratios for plane and unpolarized
 incident light, reduced masses (AMU), force constants (mDyne/A),
 and normal coordinates:
                     1
                    SGG
 Frequencies --  4468.7577
 Red. masses --     1.0078
 Frc consts  --    11.8579
 IR Inten    --     0.0000
  Atom  AN      X      Y      Z
     1   1     0.00   0.00   0.71
     2   1     0.00   0.00  -0.71

 -------------------
 - Thermochemistry -
 -------------------
 Temperature   298.150 Kelvin.  Pressure   0.987 Atm.
 Atom     1 has atomic number  1 and mass   1.00783
 Atom     2 has atomic number  1 and mass   1.00783
 Molecular mass:     2.01565 amu.
 Principal axes and moments of inertia in atomic units:
                           1         2         3
     Eigenvalues --     0.00000   0.98614   0.98614
           X            0.00000   1.00000   0.00000
           Y            0.00000   0.00000   1.00000
           Z            1.00000   0.00000   0.00000
 This molecule is a prolate symmetric top.
 Rotational symmetry number  2.
 Rotational temperature (Kelvin)     87.83094
 Rotational constant (GHZ):        1830.101945
 Zero-point vibrational energy      26729.1 (Joules/Mol)
                                    6.38841 (Kcal/Mol)
 Vibrational temperatures:   6429.54
          (Kelvin)
 
 Zero-point correction=                           0.010181 (Hartree/Particle)
 Thermal correction to Energy=                    0.012541
 Thermal correction to Enthalpy=                  0.013485
 Thermal correction to Gibbs Free Energy=        -0.001313
 Sum of electronic and zero-point Energies=             -1.158119
 Sum of electronic and thermal Energies=                -1.155759
 Sum of electronic and thermal Enthalpies=              -1.154814
 Sum of electronic and thermal Free Energies=           -1.169612
 
                     E (Thermal)             CV                S
                      KCal/Mol        Cal/Mol-Kelvin    Cal/Mol-Kelvin
 Total                    7.870              4.968             31.145
 Electronic               0.000              0.000              0.000
 Translational            0.889              2.981             28.106
 Rotational               0.592              1.987              3.039
 Vibrational              6.388              0.000              0.000
                       Q            Log10(Q)             Ln(Q)
 Total Bot       0.401626D+01          0.603822          1.390352
 Total V=0       0.193443D+06          5.286553         12.172739
 Vib (Bot)       0.207620D-04         -4.682731        -10.782387
 Vib (V=0)       0.100000D+01          0.000000          0.000000
 Electronic      0.100000D+01          0.000000          0.000000
 Translational   0.113971D+06          5.056796         11.643703
 Rotational      0.169729D+01          0.229757          0.529036
 ***** Axes restored to original set *****
 -------------------------------------------------------------------
 Center     Atomic                   Forces (Hartrees/Bohr)
 Number     Number              X              Y              Z
 -------------------------------------------------------------------
      1        1           0.000027204    0.000000000    0.000000000
      2        1          -0.000027204    0.000000000    0.000000000
 -------------------------------------------------------------------
 Cartesian Forces:  Max     0.000027204 RMS     0.000015706

 This type of calculation cannot be archived.


 EXPERIMENTALISTS THINK SILICON IS REALLY FUN TO USE
     ITS PLACE IN NOVEL COMPOUNDS IS CERTAIN TO AMUSE
 THEY SIT ALL DAY IN LABORATORIES MAKING ALL THIS SLUDGE
     "LOADED WITH THE SILICON THEY SAY", TO ME IT LOOKS LIKE FUDGE.
 FOR HAPPY THOUGH THEY BE WITH CRUD, I'D LIKE TO KNOW A LITTLE
      ABOUT THE PI BONDS ON THE EDGE AND SIGMAS IN THE MIDDLE.

 SO LETS DERIVE A WAVEFUNCTION.....6-31G*
     USE AN OPTIMAL GEOMETRY AND SEE WHERE ELECTRONS ARE.
 BUT WHAT OF CORRELATION?  ASKS THE WIRY LITTLE SKEPTIC.
     WE'LL THROW IN PERTURBATION AS AN ELECTRON ANTISEPTIC.
 AND WHEN THE PROGRAM GIVES US ANSWERS IN THEM WE CAN TRUST
     SINCE NOBODY CAN MAKE THE STUFF, WE HAVE NO CHOICE, WE MUST.

 SO THEORY GUYS HAVE GOT IT MADE, IN ROOMS FREE OF POLLUTION.
     INSTEAD OF PROBLEMS WITH THE REFLUX, THEY HAVE ONLY SOLUTIONS.
 AND WHEN THE FEDS ANNOUNCE THE LIST OF CARCINOGENIC TERRORS,
     THE THEORISTS SIT SAFELY AT THEIR TERMINALS FIXING ERRORS.
 IN OTHER WORDS, EXPERIMENTALISTS WILL LIKELY DIE OF CANCER
     FROM WORKING HARD YET FRUITLESSLY...TILL THEORY GIVES THE ANSWER.
          -- THOMAS A. HOLME, 1983
 Job cpu time:  0 days  0 hours  0 minutes  0.2 seconds.
 File lengths (MBytes):  RWF=      5 Int=      0 D2E=      0 Chk=      1 Scr=      1
 Normal termination of Gaussian 09 at Thu Mar 17 09:05:19 2022.
 Initial command:
 /software/g09/l1.exe /home/tmp/g16/Gau-3955148.inp -scrdir=/home/tmp/g16/
 Entering Link 1 = /software/g09/l1.exe PID=   3956141.
  
 Copyright (c) 1988,1990,1992,1993,1995,1998,2003,2009, Gaussian, Inc.
                  All Rights Reserved.
  
 This is part of the Gaussian(R) 09 program.  It is based on
 the Gaussian(R) 03 system (copyright 2003, Gaussian, Inc.),
 the Gaussian(R) 98 system (copyright 1998, Gaussian, Inc.),
 the Gaussian(R) 94 system (copyright 1995, Gaussian, Inc.),
 the Gaussian 92(TM) system (copyright 1992, Gaussian, Inc.),
 the Gaussian 90(TM) system (copyright 1990, Gaussian, Inc.),
 the Gaussian 88(TM) system (copyright 1988, Gaussian, Inc.),
 the Gaussian 86(TM) system (copyright 1986, Carnegie Mellon
 University), and the Gaussian 82(TM) system (copyright 1983,
 Carnegie Mellon University). Gaussian is a federally registered
 trademark of Gaussian, Inc.
  
 This software contains proprietary and confidential information,
 including trade secrets, belonging to Gaussian, Inc.
  
 This software is provided under written license and may be
 used, copied, transmitted, or stored only in accord with that
 written license.
  
 The following legend is applicable only to US Government
 contracts under FAR:
  
                    RESTRICTED RIGHTS LEGEND
  
 Use, reproduction and disclosure by the US Government is
 subject to restrictions as set forth in subparagraphs (a)
 and (c) of the Commercial Computer Software - Restricted
 Rights clause in FAR 52.227-19.
  
 Gaussian, Inc.
 340 Quinnipiac St., Bldg. 40, Wallingford CT 06492
  
  
 ---------------------------------------------------------------
 Warning -- This program may not be used in any manner that
 competes with the business of Gaussian, Inc. or will provide
 assistance to any competitor of Gaussian, Inc.  The licensee
 of this program is prohibited from giving any competitor of
 Gaussian, Inc. access to this program.  By using this program,
 the user acknowledges that Gaussian, Inc. is engaged in the
 business of creating and licensing software in the field of
 computational chemistry and represents and warrants to the
 licensee that it is not a competitor of Gaussian, Inc. and that
 it will not use this program in any manner prohibited above.
 ---------------------------------------------------------------
  

 Cite this work as:
 Gaussian 09, Revision A.01,
 M. J. Frisch, G. W. Trucks, H. B. Schlegel, G. E. Scuseria, 
 M. A. Robb, J. R. Cheeseman, G. Scalmani, V. Barone, B. Mennucci, 
 G. A. Petersson, H. Nakatsuji, M. Caricato, X. Li, H. P. Hratchian, 
 A. F. Izmaylov, J. Bloino, G. Zheng, J. L. Sonnenberg, M. Hada, 
 M. Ehara, K. Toyota, R. Fukuda, J. Hasegawa, M. Ishida, T. Nakajima, 
 Y. Honda, O. Kitao, H. Nakai, T. Vreven, J. A. Montgomery, Jr., 
 J. E. Peralta, F. Ogliaro, M. Bearpark, J. J. Heyd, E. Brothers, 
 K. N. Kudin, V. N. Staroverov, R. Kobayashi, J. Normand, 
 K. Raghavachari, A. Rendell, J. C. Burant, S. S. Iyengar, J. Tomasi, 
 M. Cossi, N. Rega, J. M. Millam, M. Klene, J. E. Knox, J. B. Cross, 
 V. Bakken, C. Adamo, J. Jaramillo, R. Gomperts, R. E. Stratmann, 
 O. Yazyev, A. J. Austin, R. Cammi, C. Pomelli, J. W. Ochterski, 
 R. L. Martin, K. Morokuma, V. G. Zakrzewski, G. A. Voth, 
 P. Salvador, J. J. Dannenberg, S. Dapprich, A. D. Daniels, 
 O. Farkas, J. B. Foresman, J. V. Ortiz, J. Cioslowski, 
 and D. J. Fox, Gaussian, Inc., Wallingford CT, 2009.
 
 ******************************************
 Gaussian 09:  EM64L-G09RevA.01  8-May-2009
                17-Mar-2022 
 ******************************************
 %chk=[H][H].chk
 ----------------------------------------------------------------------
 # freq=(readfc,hinderedrotor) temp=5000 press=0.987 geom=allcheck gu
 ess=read
 ----------------------------------------------------------------------
 1/18=20,29=7,38=1,111=5000000,112=-986920/1;
 2/12=2,40=1/2;
 7/8=2001,25=11/16;
 99/5=2,8=20/99;
 --------
 [H][H]_1
 --------
 Redundant internal coordinates taken from checkpoint file:
 [H][H].chk
 Charge =  0 Multiplicity = 1
 H,0,-0.3701377557,0.,0.
 H,0,0.3701377557,0.,0.
 Recover connectivity data from disk.
                          Input orientation:                          
 ---------------------------------------------------------------------
 Center     Atomic      Atomic             Coordinates (Angstroms)
 Number     Number       Type             X           Y           Z
 ---------------------------------------------------------------------
      1          1           0       -0.370138    0.000000    0.000000
      2          1           0        0.370138    0.000000    0.000000
 ---------------------------------------------------------------------
 Stoichiometry    H2
 Framework group  D*H[C*(H.H)]
 Deg. of freedom     1
 Full point group                 D*H     NOp   8
 Largest Abelian subgroup         D2H     NOp   8
 Largest concise Abelian subgroup C2      NOp   2
                         Standard orientation:                         
 ---------------------------------------------------------------------
 Center     Atomic      Atomic             Coordinates (Angstroms)
 Number     Number       Type             X           Y           Z
 ---------------------------------------------------------------------
      1          1           0        0.000000    0.000000    0.370138
      2          1           0        0.000000    0.000000   -0.370138
 ---------------------------------------------------------------------
 Rotational constants (GHZ):      0.0000000   1830.1019451   1830.1019451
 Electric field and nuclear coordinate derivatives read from checkpoint file.
 Rotating derivatives to standard orientation.
 Full mass-weighted force constant matrix:
 Low frequencies --- -728.4235 -728.4235   -0.0001   -0.0001   -0.0001 4468.7577
 Diagonal vibrational polarizability:
        0.0000000       0.0000000       0.0000000

 rotorrotorrotorrotorrotorrotorrotorrotorrotorrotorrotor

           Hindered Internal Rotation Analysis

 rotorrotorrotorrotorrotorrotorrotorrotorrotorrotorrotor

 Internal coordinate list sorted
 Checking for planar centers
 Checking for ring deformation
 Checking reduced barrier height
 Cut-off : V/RT =     33.756
 Number of internal rotation degrees of freedom =             0
 No hindered rotor corrections are necessary.

 Harmonic frequencies (cm**-1), IR intensities (KM/Mole), Raman scattering
 activities (A**4/AMU), depolarization ratios for plane and unpolarized
 incident light, reduced masses (AMU), force constants (mDyne/A),
 and normal coordinates:
                     1
                    SGG
 Frequencies --  4468.7577
 Red. masses --     1.0078
 Frc consts  --    11.8579
 IR Inten    --     0.0000
  Atom  AN      X      Y      Z
     1   1     0.00   0.00   0.71
     2   1     0.00   0.00  -0.71

 -------------------
 - Thermochemistry -
 -------------------
 Temperature   298.150 Kelvin.  Pressure   0.987 Atm.
 Atom     1 has atomic number  1 and mass   1.00783
 Atom     2 has atomic number  1 and mass   1.00783
 Molecular mass:     2.01565 amu.
 Principal axes and moments of inertia in atomic units:
                           1         2         3
     Eigenvalues --     0.00000   0.98614   0.98614
           X            0.00000   1.00000   0.00000
           Y            0.00000   0.00000   1.00000
           Z            1.00000   0.00000   0.00000
 This molecule is a prolate symmetric top.
 Rotational symmetry number  2.
 Rotational temperature (Kelvin)     87.83094
 Rotational constant (GHZ):        1830.101945
 Zero-point vibrational energy      26729.1 (Joules/Mol)
                                    6.38841 (Kcal/Mol)
 Vibrational temperatures:   6429.54
          (Kelvin)
 
 Zero-point correction=                           0.010181 (Hartree/Particle)
 Thermal correction to Energy=                    0.012541
 Thermal correction to Enthalpy=                  0.013485
 Thermal correction to Gibbs Free Energy=        -0.001313
 Sum of electronic and zero-point Energies=             -1.158119
 Sum of electronic and thermal Energies=                -1.155759
 Sum of electronic and thermal Enthalpies=              -1.154814
 Sum of electronic and thermal Free Energies=           -1.169612
 
                     E (Thermal)             CV                S
                      KCal/Mol        Cal/Mol-Kelvin    Cal/Mol-Kelvin
 Total                    7.870              4.968             31.145
 Electronic               0.000              0.000              0.000
 Translational            0.889              2.981             28.106
 Rotational               0.592              1.987              3.039
 Vibrational              6.388              0.000              0.000
                       Q            Log10(Q)             Ln(Q)
 Total Bot       0.401626D+01          0.603822          1.390352
 Total V=0       0.193443D+06          5.286553         12.172739
 Vib (Bot)       0.207620D-04         -4.682731        -10.782387
 Vib (V=0)       0.100000D+01          0.000000          0.000000
 Electronic      0.100000D+01          0.000000          0.000000
 Translational   0.113971D+06          5.056796         11.643703
 Rotational      0.169729D+01          0.229757          0.529036
 ***** Axes restored to original set *****
 -------------------------------------------------------------------
 Center     Atomic                   Forces (Hartrees/Bohr)
 Number     Number              X              Y              Z
 -------------------------------------------------------------------
      1        1           0.000027204    0.000000000    0.000000000
      2        1          -0.000027204    0.000000000    0.000000000
 -------------------------------------------------------------------
 Cartesian Forces:  Max     0.000027204 RMS     0.000015706

 This type of calculation cannot be archived.


 EXPERIMENTALISTS THINK SILICON IS REALLY FUN TO USE
     ITS PLACE IN NOVEL COMPOUNDS IS CERTAIN TO AMUSE
 THEY SIT ALL DAY IN LABORATORIES MAKING ALL THIS SLUDGE
     "LOADED WITH THE SILICON THEY SAY", TO ME IT LOOKS LIKE FUDGE.
 FOR HAPPY THOUGH THEY BE WITH CRUD, I'D LIKE TO KNOW A LITTLE
      ABOUT THE PI BONDS ON THE EDGE AND SIGMAS IN THE MIDDLE.

 SO LETS DERIVE A WAVEFUNCTION.....6-31G*
     USE AN OPTIMAL GEOMETRY AND SEE WHERE ELECTRONS ARE.
 BUT WHAT OF CORRELATION?  ASKS THE WIRY LITTLE SKEPTIC.
     WE'LL THROW IN PERTURBATION AS AN ELECTRON ANTISEPTIC.
 AND WHEN THE PROGRAM GIVES US ANSWERS IN THEM WE CAN TRUST
     SINCE NOBODY CAN MAKE THE STUFF, WE HAVE NO CHOICE, WE MUST.

 SO THEORY GUYS HAVE GOT IT MADE, IN ROOMS FREE OF POLLUTION.
     INSTEAD OF PROBLEMS WITH THE REFLUX, THEY HAVE ONLY SOLUTIONS.
 AND WHEN THE FEDS ANNOUNCE THE LIST OF CARCINOGENIC TERRORS,
     THE THEORISTS SIT SAFELY AT THEIR TERMINALS FIXING ERRORS.
 IN OTHER WORDS, EXPERIMENTALISTS WILL LIKELY DIE OF CANCER
     FROM WORKING HARD YET FRUITLESSLY...TILL THEORY GIVES THE ANSWER.
          -- THOMAS A. HOLME, 1983
 Job cpu time:  0 days  0 hours  0 minutes  0.2 seconds.
 File lengths (MBytes):  RWF=      5 Int=      0 D2E=      0 Chk=      1 Scr=      1
 Normal termination of Gaussian 09 at Thu Mar 17 09:05:19 2022.
