 Entering Gaussian System, Link 0=g16
 Initial command:
 /software//g16/l1.exe "/home/tmp/g16/Gau-2276922.inp" -scrdir="/home/tmp/g16/"
 Entering Link 1 = /software//g16/l1.exe PID=   2276923.
  
 Copyright (c) 1988-2019, Gaussian, Inc.  All Rights Reserved.
  
 This is part of the Gaussian(R) 16 program.  It is based on
 the Gaussian(R) 09 system (copyright 2009, Gaussian, Inc.),
 the Gaussian(R) 03 system (copyright 2003, Gaussian, Inc.),
 the Gaussian(R) 98 system (copyright 1998, Gaussian, Inc.),
 the Gaussian(R) 94 system (copyright 1995, Gaussian, Inc.),
 the Gaussian 92(TM) system (copyright 1992, Gaussian, Inc.),
 the Gaussian 90(TM) system (copyright 1990, Gaussian, Inc.),
 the Gaussian 88(TM) system (copyright 1988, Gaussian, Inc.),
 the Gaussian 86(TM) system (copyright 1986, Carnegie Mellon
 University), and the Gaussian 82(TM) system (copyright 1983,
 Carnegie Mellon University). Gaussian is a federally registered
 trademark of Gaussian, Inc.
  
 This software contains proprietary and confidential information,
 including trade secrets, belonging to Gaussian, Inc.
  
 This software is provided under written license and may be
 used, copied, transmitted, or stored only in accord with that
 written license.
  
 The following legend is applicable only to US Government
 contracts under FAR:
  
                    RESTRICTED RIGHTS LEGEND
  
 Use, reproduction and disclosure by the US Government is
 subject to restrictions as set forth in subparagraphs (a)
 and (c) of the Commercial Computer Software - Restricted
 Rights clause in FAR 52.227-19.
  
 Gaussian, Inc.
 340 Quinnipiac St., Bldg. 40, Wallingford CT 06492
  
  
 ---------------------------------------------------------------
 Warning -- This program may not be used in any manner that
 competes with the business of Gaussian, Inc. or will provide
 assistance to any competitor of Gaussian, Inc.  The licensee
 of this program is prohibited from giving any competitor of
 Gaussian, Inc. access to this program.  By using this program,
 the user acknowledges that Gaussian, Inc. is engaged in the
 business of creating and licensing software in the field of
 computational chemistry and represents and warrants to the
 licensee that it is not a competitor of Gaussian, Inc. and that
 it will not use this program in any manner prohibited above.
 ---------------------------------------------------------------
  

 Cite this work as:
 Gaussian 16, Revision C.01,
 M. J. Frisch, G. W. Trucks, H. B. Schlegel, G. E. Scuseria, 
 M. A. Robb, J. R. Cheeseman, G. Scalmani, V. Barone, 
 G. A. Petersson, H. Nakatsuji, X. Li, M. Caricato, A. V. Marenich, 
 J. Bloino, B. G. Janesko, R. Gomperts, B. Mennucci, H. P. Hratchian, 
 J. V. Ortiz, A. F. Izmaylov, J. L. Sonnenberg, D. Williams-Young, 
 F. Ding, F. Lipparini, F. Egidi, J. Goings, B. Peng, A. Petrone, 
 T. Henderson, D. Ranasinghe, V. G. Zakrzewski, J. Gao, N. Rega, 
 G. Zheng, W. Liang, M. Hada, M. Ehara, K. Toyota, R. Fukuda, 
 J. Hasegawa, M. Ishida, T. Nakajima, Y. Honda, O. Kitao, H. Nakai, 
 T. Vreven, K. Throssell, J. A. Montgomery, Jr., J. E. Peralta, 
 F. Ogliaro, M. J. Bearpark, J. J. Heyd, E. N. Brothers, K. N. Kudin, 
 V. N. Staroverov, T. A. Keith, R. Kobayashi, J. Normand, 
 K. Raghavachari, A. P. Rendell, J. C. Burant, S. S. Iyengar, 
 J. Tomasi, M. Cossi, J. M. Millam, M. Klene, C. Adamo, R. Cammi, 
 J. W. Ochterski, R. L. Martin, K. Morokuma, O. Farkas, 
 J. B. Foresman, and D. J. Fox, Gaussian, Inc., Wallingford CT, 2019.
 
 ******************************************
 Gaussian 16:  ES64L-G16RevC.01  3-Jul-2019
                 3-May-2022 
 ******************************************
 %nprocshared=8
 Will use up to    8 processors via shared memory.
 %chk=[CH2]-T.chk
 ----------------------------------------------------------------------
 # opt freq=hinderedrotor B3LYP/6-31g(d,p) scf=fermi symm=veryloose pre
 ss=0.987 int=superfine
 ----------------------------------------------------------------------
 1/18=20,19=15,26=5,38=1,113=-987000/1,3;
 2/9=110,12=2,17=2,18=2,40=1/2;
 3/5=1,6=6,7=101,11=2,25=1,30=1,71=1,74=-5,75=-7/1,2,3;
 4//1;
 5/5=2,22=13,38=5/2;
 6/7=2,8=2,9=2,10=2,28=1/1;
 7//1,2,3,16;
 1/18=20,19=15,26=5/3(2);
 2/9=110/2;
 99//99;
 2/9=110/2;
 3/5=1,6=6,7=101,11=2,25=1,30=1,71=1,74=-5,75=-7/1,2,3;
 4/5=5,16=3,69=1/1;
 5/5=2,22=13,38=5/2;
 7//1,2,3,16;
 1/18=20,19=15,26=5/3(-5);
 2/9=110/2;
 6/7=2,8=2,9=2,10=2,19=2,28=1/1;
 99/9=1/99;
 ---------
 [CH2]-T_1
 ---------
 Symbolic Z-matrix:
 Charge =  0 Multiplicity = 3
 C                     0.15669   0.        0. 
 H                     0.51334  -1.00881   0. 
 H                    -0.91331   0.00001   0. 
 

 GradGradGradGradGradGradGradGradGradGradGradGradGradGradGradGradGradGrad
 Berny optimization.
 Initialization pass.
                           ----------------------------
                           !    Initial Parameters    !
                           ! (Angstroms and Degrees)  !
 --------------------------                            --------------------------
 ! Name  Definition              Value          Derivative Info.                !
 --------------------------------------------------------------------------------
 ! R1    R(1,2)                  1.07           estimate D2E/DX2                !
 ! R2    R(1,3)                  1.07           estimate D2E/DX2                !
 ! A1    A(2,1,3)              109.4712         estimate D2E/DX2                !
 --------------------------------------------------------------------------------
 Trust Radius=3.00D-01 FncErr=1.00D-07 GrdErr=1.00D-07 EigMax=2.50D+02 EigMin=1.00D-04
 Number of steps in this run=     20 maximum allowed number of steps=    100.
 GradGradGradGradGradGradGradGradGradGradGradGradGradGradGradGradGradGrad

                          Input orientation:                          
 ---------------------------------------------------------------------
 Center     Atomic      Atomic             Coordinates (Angstroms)
 Number     Number       Type             X           Y           Z
 ---------------------------------------------------------------------
      1          6           0        0.156686    0.000000    0.000000
      2          1           0        0.513340   -1.008810    0.000000
      3          1           0       -0.913314    0.000013    0.000000
 ---------------------------------------------------------------------
                    Distance matrix (angstroms):
                    1          2          3
     1  C    0.000000
     2  H    1.070000   0.000000
     3  H    1.070000   1.747303   0.000000
 Stoichiometry    CH2(3)
 Framework group  C2V[C2(C),SGV(H2)]
 Deg. of freedom     2
 Full point group                 C2V     NOp   4
 Largest Abelian subgroup         C2V     NOp   4
 Largest concise Abelian subgroup C2      NOp   2
                         Standard orientation:                         
 ---------------------------------------------------------------------
 Center     Atomic      Atomic             Coordinates (Angstroms)
 Number     Number       Type             X           Y           Z
 ---------------------------------------------------------------------
      1          6           0        0.000000    0.000000    0.154441
      2          1           0        0.000000   -0.873651   -0.463324
      3          1           0        0.000000    0.873651   -0.463324
 ---------------------------------------------------------------------
 Rotational constants (GHZ):         767.3400550         328.4926934         230.0219644
 Standard basis: 6-31G(d,p) (6D, 7F)
 There are    12 symmetry adapted cartesian basis functions of A1  symmetry.
 There are     2 symmetry adapted cartesian basis functions of A2  symmetry.
 There are     4 symmetry adapted cartesian basis functions of B1  symmetry.
 There are     7 symmetry adapted cartesian basis functions of B2  symmetry.
 There are    12 symmetry adapted basis functions of A1  symmetry.
 There are     2 symmetry adapted basis functions of A2  symmetry.
 There are     4 symmetry adapted basis functions of B1  symmetry.
 There are     7 symmetry adapted basis functions of B2  symmetry.
    25 basis functions,    42 primitive gaussians,    25 cartesian basis functions
     5 alpha electrons        3 beta electrons
       nuclear repulsion energy         6.2375514661 Hartrees.
 NAtoms=    3 NActive=    3 NUniq=    2 SFac= 2.25D+00 NAtFMM=   60 NAOKFM=F Big=F
 Integral buffers will be    131072 words long.
 Raffenetti 2 integral format.
 Two-electron integral symmetry is turned on.
 One-electron integrals computed using PRISM.
 NBasis=    25 RedAO= T EigKep=  2.80D-02  NBF=    12     2     4     7
 NBsUse=    25 1.00D-06 EigRej= -1.00D+00 NBFU=    12     2     4     7
 ExpMin= 1.61D-01 ExpMax= 3.05D+03 ExpMxC= 4.57D+02 IAcc=3 IRadAn=         7 AccDes= 0.00D+00
 Harris functional with IExCor=  402 and IRadAn=       7 diagonalized for initial guess.
 HarFok:  IExCor=  402 AccDes= 0.00D+00 IRadAn=         7 IDoV= 1 UseB2=F ITyADJ=14
 ICtDFT=  3500011 ScaDFX=  1.000000  1.000000  1.000000  1.000000
 FoFCou: FMM=F IPFlag=           0 FMFlag=      100000 FMFlg1=           0
         NFxFlg=           0 DoJE=T BraDBF=F KetDBF=T FulRan=T
         wScrn=  0.000000 ICntrl=       500 IOpCl=  0 I1Cent=   200000004 NGrid=           0
         NMat0=    1 NMatS0=      1 NMatT0=    0 NMatD0=    1 NMtDS0=    0 NMtDT0=    0
 Petite list used in FoFCou.
 Initial guess orbital symmetries:
 Alpha Orbitals:
       Occupied  (A1) (A1) (B2) (A1) (B1)
       Virtual   (A1) (B2) (B2) (B1) (A1) (A1) (B2) (A1) (A2) (A1)
                 (B1) (A1) (B2) (B2) (B1) (A2) (A1) (A1) (B2) (A1)
 Beta  Orbitals:
       Occupied  (A1) (A1) (B2)
       Virtual   (A1) (B1) (A1) (B2) (B2) (B1) (A1) (A1) (B2) (A1)
                 (A2) (A1) (B1) (A1) (B2) (B2) (B1) (A2) (A1) (A1)
                 (B2) (A1)
 The electronic state of the initial guess is 3-B1.
 Initial guess <Sx>= 0.0000 <Sy>= 0.0000 <Sz>= 1.0000 <S**2>= 2.0000 S= 1.0000
 Keep R1 and R2 ints in memory in symmetry-blocked form, NReq=6993093.
 Requested convergence on RMS density matrix=1.00D-08 within 128 cycles.
 Requested convergence on MAX density matrix=1.00D-06.
 Requested convergence on             energy=1.00D-06.
 Level shift goal  0.100 maximum shift  0.100.
 No special actions if energy rises.
 Dynamic level shift is on during FON iterations.
 Integral accuracy reduced to 1.0D-05 until final iterations.
 Initial convergence to 1.0D-05 achieved.  Increase integral accuracy.
 SCF Done:  E(UB3LYP) =  -39.1435200410     A.U. after   11 cycles
            NFock= 11  Conv=0.28D-08     -V/T= 2.0075
 <Sx>= 0.0000 <Sy>= 0.0000 <Sz>= 1.0000 <S**2>= 2.0036 S= 1.0012
 <L.S>=  0.00000000000    
 Annihilation of the first spin contaminant:
 S**2 before annihilation     2.0036,   after     2.0000

 **********************************************************************

            Population analysis using the SCF Density.

 **********************************************************************

 Orbital symmetries:
 Alpha Orbitals:
       Occupied  (A1) (A1) (B2) (A1) (B1)
       Virtual   (A1) (B2) (A1) (B2) (B1) (A1) (B2) (A1) (A2) (A1)
                 (B1) (A1) (B2) (B2) (B1) (A2) (A1) (A1) (B2) (A1)
 Beta  Orbitals:
       Occupied  (A1) (A1) (B2)
       Virtual   (A1) (B1) (A1) (B2) (B2) (A1) (B1) (A1) (B2) (A1)
                 (A2) (A1) (B1) (A1) (B2) (B2) (B1) (A2) (A1) (A1)
                 (B2) (A1)
 The electronic state is 3-B1.
 Alpha  occ. eigenvalues --  -10.22658  -0.68365  -0.42160  -0.30982  -0.23999
 Alpha virt. eigenvalues --    0.13201   0.17139   0.52211   0.52439   0.52531
 Alpha virt. eigenvalues --    0.69827   0.86353   0.92247   1.43439   1.44915
 Alpha virt. eigenvalues --    1.52459   1.94402   2.04161   2.22262   2.44547
 Alpha virt. eigenvalues --    2.50211   2.77593   3.25503   3.43122   4.08430
  Beta  occ. eigenvalues --  -10.19756  -0.61221  -0.39750
  Beta virt. eigenvalues --   -0.09871  -0.04021   0.15149   0.19699   0.54206
  Beta virt. eigenvalues --    0.60464   0.61514   0.73700   0.89308   0.95893
  Beta virt. eigenvalues --    1.49153   1.53505   1.64276   2.03796   2.06143
  Beta virt. eigenvalues --    2.26054   2.48925   2.54660   2.81281   3.28065
  Beta virt. eigenvalues --    3.46198   4.16216
          Condensed to atoms (all electrons):
               1          2          3
     1  C    5.528905   0.361504   0.361504
     2  H    0.361504   0.566369  -0.053830
     3  H    0.361504  -0.053830   0.566369
          Atomic-Atomic Spin Densities.
               1          2          3
     1  C    2.112913  -0.028692  -0.028692
     2  H   -0.028692  -0.014229   0.015157
     3  H   -0.028692   0.015157  -0.014229
 Mulliken charges and spin densities:
               1          2
     1  C   -0.251913   2.055529
     2  H    0.125956  -0.027764
     3  H    0.125956  -0.027764
 Sum of Mulliken charges =   0.00000   2.00000
 Mulliken charges and spin densities with hydrogens summed into heavy atoms:
               1          2
     1  C    0.000000   2.000000
 Electronic spatial extent (au):  <R**2>=             23.2101
 Charge=              0.0000 electrons
 Dipole moment (field-independent basis, Debye):
    X=              0.0000    Y=             -0.0000    Z=             -0.7082  Tot=              0.7082
 Quadrupole moment (field-independent basis, Debye-Ang):
   XX=             -7.7747   YY=             -6.4806   ZZ=             -6.8812
   XY=              0.0000   XZ=             -0.0000   YZ=              0.0000
 Traceless Quadrupole moment (field-independent basis, Debye-Ang):
   XX=             -0.7292   YY=              0.5649   ZZ=              0.1643
   XY=              0.0000   XZ=             -0.0000   YZ=              0.0000
 Octapole moment (field-independent basis, Debye-Ang**2):
  XXX=             -0.0000  YYY=              0.0000  ZZZ=             -1.0815  XYY=             -0.0000
  XXY=             -0.0000  XXZ=             -0.3430  XZZ=             -0.0000  YZZ=             -0.0000
  YYZ=             -0.9057  XYZ=             -0.0000
 Hexadecapole moment (field-independent basis, Debye-Ang**3):
 XXXX=             -8.1296 YYYY=            -13.0928 ZZZZ=             -9.7988 XXXY=             -0.0000
 XXXZ=              0.0000 YYYX=             -0.0000 YYYZ=             -0.0000 ZZZX=              0.0000
 ZZZY=              0.0000 XXYY=             -3.7776 XXZZ=             -3.0341 YYZZ=             -3.5612
 XXYZ=              0.0000 YYXZ=             -0.0000 ZZXY=             -0.0000
 N-N= 6.237551466114D+00 E-N=-1.029743932573D+02  KE= 3.885381488431D+01
 Symmetry A1   KE= 3.565662072955D+01
 Symmetry A2   KE= 4.641448786203D-35
 Symmetry B1   KE= 1.190739636176D+00
 Symmetry B2   KE= 2.006454518580D+00
 Symmetry A1   SP= 1.000000000000D+00
 Symmetry A2   SP=-5.402640935145D-36
 Symmetry B1   SP= 1.000000000000D+00
 Symmetry B2   SP= 3.220297292716D-15
                          Isotropic Fermi Contact Couplings
        Atom                 a.u.       MegaHertz       Gauss      10(-4) cm-1
     1  C(13)              0.65412     367.67618     131.19600     122.64357
     2  H(1)               0.00466      10.42378       3.71946       3.47700
     3  H(1)               0.00466      10.42378       3.71946       3.47700
 --------------------------------------------------------
       Center         ----  Spin Dipole Couplings  ----
                      3XX-RR        3YY-RR        3ZZ-RR
 --------------------------------------------------------
     1   Atom        0.710655     -0.982641      0.271986
     2   Atom       -0.054822      0.074946     -0.020124
     3   Atom       -0.054822      0.074946     -0.020124
 --------------------------------------------------------
                        XY            XZ            YZ
 --------------------------------------------------------
     1   Atom        0.000000     -0.000000      0.000000
     2   Atom        0.000000     -0.000000      0.111042
     3   Atom        0.000000     -0.000000     -0.111042
 --------------------------------------------------------


 ---------------------------------------------------------------------------------
              Anisotropic Spin Dipole Couplings in Principal Axis System
 ---------------------------------------------------------------------------------

       Atom             a.u.   MegaHertz   Gauss  10(-4) cm-1        Axes

              Baa    -0.9826  -131.861   -47.051   -43.984 -0.0000  1.0000 -0.0000
     1 C(13)  Bbb     0.2720    36.498    13.023    12.174  0.0000  0.0000  1.0000
              Bcc     0.7107    95.363    34.028    31.810  1.0000 -0.0000  0.0000
 
              Baa    -0.0934   -49.822   -17.778   -16.619  0.0000 -0.5507  0.8347
     2 H(1)   Bbb    -0.0548   -29.251   -10.437    -9.757  1.0000  0.0000  0.0000
              Bcc     0.1482    79.073    28.215    26.376 -0.0000  0.8347  0.5507
 
              Baa    -0.0934   -49.822   -17.778   -16.619  0.0000  0.5507  0.8347
     3 H(1)   Bbb    -0.0548   -29.251   -10.437    -9.757  1.0000 -0.0000  0.0000
              Bcc     0.1482    79.073    28.215    26.376  0.0000  0.8347 -0.5507
 

 ---------------------------------------------------------------------------------

 Calling FoFJK, ICntrl=      2127 FMM=F ISym2X=1 I1Cent= 0 IOpClX= 1 NMat=1 NMatS=1 NMatT=0.
 ***** Axes restored to original set *****
 -------------------------------------------------------------------
 Center     Atomic                   Forces (Hartrees/Bohr)
 Number     Number              X              Y              Z
 -------------------------------------------------------------------
      1        6          -0.013037533   -0.018437378   -0.000000000
      2        1           0.028578979   -0.006380642    0.000000000
      3        1          -0.015541446    0.024818020    0.000000000
 -------------------------------------------------------------------
 Cartesian Forces:  Max     0.028578979 RMS     0.015722791

 GradGradGradGradGradGradGradGradGradGradGradGradGradGradGradGradGradGrad
 Berny optimization.
 FormGI is forming the generalized inverse of G from B-inverse, IUseBI=4.
 Internal  Forces:  Max     0.050181821 RMS     0.031629666
 Search for a local minimum.
 Step number   1 out of a maximum of   20
 All quantities printed in internal units (Hartrees-Bohrs-Radians)
 Mixed Optimization -- RFO/linear search
 Second derivative matrix not updated -- first step.
 The second derivative matrix:
                          R1        R2        A1
           R1           0.37230
           R2           0.00000   0.37230
           A1           0.00000   0.00000   0.16000
 ITU=  0
     Eigenvalues ---    0.16000   0.37230   0.37230
 RFO step:  Lambda=-1.55871199D-02 EMin= 1.60000000D-01
 Linear search not attempted -- first point.
 Iteration  1 RMS(Cart)=  0.13883345 RMS(Int)=  0.05300879
 Iteration  2 RMS(Cart)=  0.05128826 RMS(Int)=  0.00176222
 Iteration  3 RMS(Cart)=  0.00172270 RMS(Int)=  0.00000022
 Iteration  4 RMS(Cart)=  0.00000021 RMS(Int)=  0.00000000
 ClnCor:  largest displacement from symmetrization is 7.12D-16 for atom     3.
 Variable       Old X    -DE/DX   Delta X   Delta X   Delta X     New X
                                 (Linear)    (Quad)   (Total)
    R1        2.02201   0.01554   0.00000   0.04007   0.04007   2.06207
    R2        2.02201   0.01554   0.00000   0.04007   0.04007   2.06207
    A1        1.91063   0.05018   0.00000   0.28579   0.28579   2.19643
         Item               Value     Threshold  Converged?
 Maximum Force            0.050182     0.000450     NO 
 RMS     Force            0.031630     0.000300     NO 
 Maximum Displacement     0.195161     0.001800     NO 
 RMS     Displacement     0.185667     0.001200     NO 
 Predicted change in Energy=-8.455153D-03
 GradGradGradGradGradGradGradGradGradGradGradGradGradGradGradGradGradGrad

                          Input orientation:                          
 ---------------------------------------------------------------------
 Center     Atomic      Atomic             Coordinates (Angstroms)
 Number     Number       Type             X           Y           Z
 ---------------------------------------------------------------------
      1          6           0        0.110087   -0.065898   -0.000000
      2          1           0        0.616615   -1.032414    0.000000
      3          1           0       -0.969991    0.089515   -0.000000
 ---------------------------------------------------------------------
                    Distance matrix (angstroms):
                    1          2          3
     1  C    0.000000
     2  H    1.091203   0.000000
     3  H    1.091203   1.943205   0.000000
 Stoichiometry    CH2(3)
 Framework group  C2V[C2(C),SGV(H2)]
 Deg. of freedom     2
 Full point group                 C2V     NOp   4
 Largest Abelian subgroup         C2V     NOp   4
 Largest concise Abelian subgroup C2      NOp   2
                         Standard orientation:                         
 ---------------------------------------------------------------------
 Center     Atomic      Atomic             Coordinates (Angstroms)
 Number     Number       Type             X           Y           Z
 ---------------------------------------------------------------------
      1          6           0        0.000000   -0.000000    0.124175
      2          1           0        0.000000   -0.971602   -0.372526
      3          1           0        0.000000    0.971602   -0.372526
 ---------------------------------------------------------------------
 Rotational constants (GHZ):        1186.9790482         265.5980494         217.0344834
 Standard basis: 6-31G(d,p) (6D, 7F)
 There are    12 symmetry adapted cartesian basis functions of A1  symmetry.
 There are     2 symmetry adapted cartesian basis functions of A2  symmetry.
 There are     4 symmetry adapted cartesian basis functions of B1  symmetry.
 There are     7 symmetry adapted cartesian basis functions of B2  symmetry.
 There are    12 symmetry adapted basis functions of A1  symmetry.
 There are     2 symmetry adapted basis functions of A2  symmetry.
 There are     4 symmetry adapted basis functions of B1  symmetry.
 There are     7 symmetry adapted basis functions of B2  symmetry.
    25 basis functions,    42 primitive gaussians,    25 cartesian basis functions
     5 alpha electrons        3 beta electrons
       nuclear repulsion energy         6.0917041001 Hartrees.
 NAtoms=    3 NActive=    3 NUniq=    2 SFac= 2.25D+00 NAtFMM=   60 NAOKFM=F Big=F
 Integral buffers will be    131072 words long.
 Raffenetti 2 integral format.
 Two-electron integral symmetry is turned on.
 One-electron integrals computed using PRISM.
 NBasis=    25 RedAO= T EigKep=  3.47D-02  NBF=    12     2     4     7
 NBsUse=    25 1.00D-06 EigRej= -1.00D+00 NBFU=    12     2     4     7
 Initial guess from the checkpoint file:  "[CH2]-T.chk"
 B after Tr=     0.000000    0.000000    0.000000
         Rot=    1.000000    0.000000    0.000000   -0.000000 Ang=   0.00 deg.
 Initial guess orbital symmetries:
 Alpha Orbitals:
       Occupied  (A1) (A1) (B2) (A1) (B1)
       Virtual   (A1) (B2) (A1) (B2) (B1) (A1) (B2) (A1) (A2) (A1)
                 (B1) (A1) (B2) (B2) (B1) (A2) (A1) (A1) (B2) (A1)
 Beta  Orbitals:
       Occupied  (A1) (A1) (B2)
       Virtual   (A1) (B1) (A1) (B2) (B2) (A1) (B1) (A1) (B2) (A1)
                 (A2) (A1) (B1) (A1) (B2) (B2) (B1) (A2) (A1) (A1)
                 (B2) (A1)
 Initial guess <Sx>= 0.0000 <Sy>= 0.0000 <Sz>= 1.0000 <S**2>= 2.0040 S= 1.0013
 ExpMin= 1.61D-01 ExpMax= 3.05D+03 ExpMxC= 4.57D+02 IAcc=3 IRadAn=         7 AccDes= 0.00D+00
 Harris functional with IExCor=  402 and IRadAn=       7 diagonalized for initial guess.
 HarFok:  IExCor=  402 AccDes= 0.00D+00 IRadAn=         7 IDoV= 1 UseB2=F ITyADJ=14
 ICtDFT=  3500011 ScaDFX=  1.000000  1.000000  1.000000  1.000000
 FoFCou: FMM=F IPFlag=           0 FMFlag=      100000 FMFlg1=           0
         NFxFlg=           0 DoJE=T BraDBF=F KetDBF=T FulRan=T
         wScrn=  0.000000 ICntrl=       500 IOpCl=  0 I1Cent=   200000004 NGrid=           0
         NMat0=    1 NMatS0=      1 NMatT0=    0 NMatD0=    1 NMtDS0=    0 NMtDT0=    0
 Petite list used in FoFCou.
 Keep R1 and R2 ints in memory in symmetry-blocked form, NReq=6993093.
 Requested convergence on RMS density matrix=1.00D-08 within 128 cycles.
 Requested convergence on MAX density matrix=1.00D-06.
 Requested convergence on             energy=1.00D-06.
 Level shift goal  0.100 maximum shift  0.100.
 No special actions if energy rises.
 Dynamic level shift is on during FON iterations.
 Integral accuracy reduced to 1.0D-05 until final iterations.
 Initial convergence to 1.0D-05 achieved.  Increase integral accuracy.
 SCF Done:  E(UB3LYP) =  -39.1526126398     A.U. after   10 cycles
            NFock= 10  Conv=0.22D-08     -V/T= 2.0094
 <Sx>= 0.0000 <Sy>= 0.0000 <Sz>= 1.0000 <S**2>= 2.0045 S= 1.0015
 <L.S>=  0.00000000000    
 Annihilation of the first spin contaminant:
 S**2 before annihilation     2.0045,   after     2.0000
 Calling FoFJK, ICntrl=      2127 FMM=F ISym2X=1 I1Cent= 0 IOpClX= 1 NMat=1 NMatS=1 NMatT=0.
 ***** Axes restored to original set *****
 -------------------------------------------------------------------
 Center     Atomic                   Forces (Hartrees/Bohr)
 Number     Number              X              Y              Z
 -------------------------------------------------------------------
      1        6          -0.008445212   -0.011943024   -0.000000000
      2        1           0.003281570    0.006636942    0.000000000
      3        1           0.005163642    0.005306081    0.000000000
 -------------------------------------------------------------------
 Cartesian Forces:  Max     0.011943024 RMS     0.005996229

 GradGradGradGradGradGradGradGradGradGradGradGradGradGradGradGradGradGrad
 Berny optimization.
 Using GEDIIS/GDIIS optimizer.
 FormGI is forming the generalized inverse of G from B-inverse, IUseBI=4.
 Internal  Forces:  Max     0.012346495 RMS     0.007966034
 Search for a local minimum.
 Step number   2 out of a maximum of   20
 All quantities printed in internal units (Hartrees-Bohrs-Radians)
 Mixed Optimization -- RFO/linear search
 Update second derivatives using D2CorX and points    1    2
 DE= -9.09D-03 DEPred=-8.46D-03 R= 1.08D+00
 TightC=F SS=  1.41D+00  RLast= 2.91D-01 DXNew= 5.0454D-01 8.7407D-01
 Trust test= 1.08D+00 RLast= 2.91D-01 DXMaxT set to 5.05D-01
 The second derivative matrix:
                          R1        R2        A1
           R1           0.38861
           R2           0.01631   0.38861
           A1           0.01285   0.01285   0.12878
 ITU=  1  0
 Use linear search instead of GDIIS.
     Eigenvalues ---    0.12759   0.37230   0.40611
 RFO step:  Lambda=-6.12302552D-04 EMin= 1.27591601D-01
 Quartic linear search produced a step of  0.31151.
 Iteration  1 RMS(Cart)=  0.06356994 RMS(Int)=  0.00288976
 Iteration  2 RMS(Cart)=  0.00285827 RMS(Int)=  0.00000061
 Iteration  3 RMS(Cart)=  0.00000055 RMS(Int)=  0.00000000
 ClnCor:  largest displacement from symmetrization is 5.40D-15 for atom     3.
 Variable       Old X    -DE/DX   Delta X   Delta X   Delta X     New X
                                 (Linear)    (Quad)   (Total)
    R1        2.06207  -0.00436   0.01248  -0.02609  -0.01361   2.04846
    R2        2.06207  -0.00436   0.01248  -0.02609  -0.01361   2.04846
    A1        2.19643   0.01235   0.08903   0.02735   0.11638   2.31281
         Item               Value     Threshold  Converged?
 Maximum Force            0.012346     0.000450     NO 
 RMS     Force            0.007966     0.000300     NO 
 Maximum Displacement     0.061971     0.001800     NO 
 RMS     Displacement     0.062413     0.001200     NO 
 Predicted change in Energy=-6.490136D-04
 GradGradGradGradGradGradGradGradGradGradGradGradGradGradGradGradGradGrad

                          Input orientation:                          
 ---------------------------------------------------------------------
 Center     Atomic      Atomic             Coordinates (Angstroms)
 Number     Number       Type             X           Y           Z
 ---------------------------------------------------------------------
      1          6           0        0.086898   -0.098691   -0.000000
      2          1           0        0.645069   -1.027939    0.000000
      3          1           0       -0.975256    0.117834   -0.000000
 ---------------------------------------------------------------------
                    Distance matrix (angstroms):
                    1          2          3
     1  C    0.000000
     2  H    1.084000   0.000000
     3  H    1.084000   1.984502   0.000000
 Stoichiometry    CH2(3)
 Framework group  C2V[C2(C),SGV(H2)]
 Deg. of freedom     2
 Full point group                 C2V     NOp   4
 Largest Abelian subgroup         C2V     NOp   4
 Largest concise Abelian subgroup C2      NOp   2
                         Standard orientation:                         
 ---------------------------------------------------------------------
 Center     Atomic      Atomic             Coordinates (Angstroms)
 Number     Number       Type             X           Y           Z
 ---------------------------------------------------------------------
      1          6           0        0.000000   -0.000000    0.109114
      2          1           0       -0.000000   -0.992251   -0.327342
      3          1           0        0.000000    0.992251   -0.327342
 ---------------------------------------------------------------------
 Rotational constants (GHZ):        1537.2827210         254.6588574         218.4684288
 Standard basis: 6-31G(d,p) (6D, 7F)
 There are    12 symmetry adapted cartesian basis functions of A1  symmetry.
 There are     2 symmetry adapted cartesian basis functions of A2  symmetry.
 There are     4 symmetry adapted cartesian basis functions of B1  symmetry.
 There are     7 symmetry adapted cartesian basis functions of B2  symmetry.
 There are    12 symmetry adapted basis functions of A1  symmetry.
 There are     2 symmetry adapted basis functions of A2  symmetry.
 There are     4 symmetry adapted basis functions of B1  symmetry.
 There are     7 symmetry adapted basis functions of B2  symmetry.
    25 basis functions,    42 primitive gaussians,    25 cartesian basis functions
     5 alpha electrons        3 beta electrons
       nuclear repulsion energy         6.1247050833 Hartrees.
 NAtoms=    3 NActive=    3 NUniq=    2 SFac= 2.25D+00 NAtFMM=   60 NAOKFM=F Big=F
 Integral buffers will be    131072 words long.
 Raffenetti 2 integral format.
 Two-electron integral symmetry is turned on.
 One-electron integrals computed using PRISM.
 NBasis=    25 RedAO= T EigKep=  3.61D-02  NBF=    12     2     4     7
 NBsUse=    25 1.00D-06 EigRej= -1.00D+00 NBFU=    12     2     4     7
 Initial guess from the checkpoint file:  "[CH2]-T.chk"
 B after Tr=     0.000000   -0.000000    0.000000
         Rot=    1.000000   -0.000000   -0.000000    0.000000 Ang=   0.00 deg.
 Initial guess orbital symmetries:
 Alpha Orbitals:
       Occupied  (A1) (A1) (B2) (A1) (B1)
       Virtual   (A1) (B2) (A1) (B1) (B2) (A1) (B2) (A1) (A2) (A1)
                 (B1) (B2) (A1) (B1) (B2) (A2) (A1) (A1) (B2) (A1)
 Beta  Orbitals:
       Occupied  (A1) (A1) (B2)
       Virtual   (A1) (B1) (A1) (B2) (B2) (A1) (B1) (A1) (B2) (A1)
                 (A2) (A1) (B1) (B2) (A1) (B1) (B2) (A2) (A1) (A1)
                 (B2) (A1)
 Initial guess <Sx>= 0.0000 <Sy>= 0.0000 <Sz>= 1.0000 <S**2>= 2.0046 S= 1.0015
 ExpMin= 1.61D-01 ExpMax= 3.05D+03 ExpMxC= 4.57D+02 IAcc=3 IRadAn=         7 AccDes= 0.00D+00
 Harris functional with IExCor=  402 and IRadAn=       7 diagonalized for initial guess.
 HarFok:  IExCor=  402 AccDes= 0.00D+00 IRadAn=         7 IDoV= 1 UseB2=F ITyADJ=14
 ICtDFT=  3500011 ScaDFX=  1.000000  1.000000  1.000000  1.000000
 FoFCou: FMM=F IPFlag=           0 FMFlag=      100000 FMFlg1=           0
         NFxFlg=           0 DoJE=T BraDBF=F KetDBF=T FulRan=T
         wScrn=  0.000000 ICntrl=       500 IOpCl=  0 I1Cent=   200000004 NGrid=           0
         NMat0=    1 NMatS0=      1 NMatT0=    0 NMatD0=    1 NMtDS0=    0 NMtDT0=    0
 Petite list used in FoFCou.
 Keep R1 and R2 ints in memory in symmetry-blocked form, NReq=6993093.
 Requested convergence on RMS density matrix=1.00D-08 within 128 cycles.
 Requested convergence on MAX density matrix=1.00D-06.
 Requested convergence on             energy=1.00D-06.
 Level shift goal  0.100 maximum shift  0.100.
 No special actions if energy rises.
 Dynamic level shift is on during FON iterations.
 Integral accuracy reduced to 1.0D-05 until final iterations.
 Initial convergence to 1.0D-05 achieved.  Increase integral accuracy.
 SCF Done:  E(UB3LYP) =  -39.1534672203     A.U. after   10 cycles
            NFock= 10  Conv=0.79D-08     -V/T= 2.0091
 <Sx>= 0.0000 <Sy>= 0.0000 <Sz>= 1.0000 <S**2>= 2.0051 S= 1.0017
 <L.S>=  0.00000000000    
 Annihilation of the first spin contaminant:
 S**2 before annihilation     2.0051,   after     2.0000
 Calling FoFJK, ICntrl=      2127 FMM=F ISym2X=1 I1Cent= 0 IOpClX= 1 NMat=1 NMatS=1 NMatT=0.
 ***** Axes restored to original set *****
 -------------------------------------------------------------------
 Center     Atomic                   Forces (Hartrees/Bohr)
 Number     Number              X              Y              Z
 -------------------------------------------------------------------
      1        6          -0.001326742   -0.001876248   -0.000000000
      2        1          -0.000124659    0.001495360    0.000000000
      3        1           0.001451401    0.000380888    0.000000000
 -------------------------------------------------------------------
 Cartesian Forces:  Max     0.001876248 RMS     0.001042637

 GradGradGradGradGradGradGradGradGradGradGradGradGradGradGradGradGradGrad
 Berny optimization.
 Using GEDIIS/GDIIS optimizer.
 FormGI is forming the generalized inverse of G from B-inverse, IUseBI=4.
 Internal  Forces:  Max     0.001358386 RMS     0.001350188
 Search for a local minimum.
 Step number   3 out of a maximum of   20
 All quantities printed in internal units (Hartrees-Bohrs-Radians)
 Mixed Optimization -- RFO/linear search
 Update second derivatives using D2CorX and points    1    2    3
 DE= -8.55D-04 DEPred=-6.49D-04 R= 1.32D+00
 TightC=F SS=  1.41D+00  RLast= 1.18D-01 DXNew= 8.4853D-01 3.5388D-01
 Trust test= 1.32D+00 RLast= 1.18D-01 DXMaxT set to 5.05D-01
 The second derivative matrix:
                          R1        R2        A1
           R1           0.38891
           R2           0.01661   0.38891
           A1           0.02157   0.02157   0.09946
 ITU=  1  1  0
 Use linear search instead of GDIIS.
     Eigenvalues ---    0.09645   0.37230   0.40854
 RFO step:  Lambda=-4.02022367D-06 EMin= 9.64515396D-02
 Quartic linear search produced a step of  0.15950.
 Iteration  1 RMS(Cart)=  0.00890643 RMS(Int)=  0.00006675
 Iteration  2 RMS(Cart)=  0.00007018 RMS(Int)=  0.00000000
 Iteration  3 RMS(Cart)=  0.00000000 RMS(Int)=  0.00000000
 ClnCor:  largest displacement from symmetrization is 2.30D-15 for atom     3.
 Variable       Old X    -DE/DX   Delta X   Delta X   Delta X     New X
                                 (Linear)    (Quad)   (Total)
    R1        2.04846  -0.00135  -0.00217  -0.00213  -0.00430   2.04416
    R2        2.04846  -0.00135  -0.00217  -0.00213  -0.00430   2.04416
    A1        2.31281   0.00136   0.01856  -0.00117   0.01740   2.33020
         Item               Value     Threshold  Converged?
 Maximum Force            0.001358     0.000450     NO 
 RMS     Force            0.001350     0.000300     NO 
 Maximum Displacement     0.009818     0.001800     NO 
 RMS     Displacement     0.008884     0.001200     NO 
 Predicted change in Energy=-1.588599D-05
 GradGradGradGradGradGradGradGradGradGradGradGradGradGradGradGradGradGrad

                          Input orientation:                          
 ---------------------------------------------------------------------
 Center     Atomic      Atomic             Coordinates (Angstroms)
 Number     Number       Type             X           Y           Z
 ---------------------------------------------------------------------
      1          6           0        0.083224   -0.103887   -0.000000
      2          1           0        0.648269   -1.026305    0.000000
      3          1           0       -0.974782    0.121395   -0.000000
 ---------------------------------------------------------------------
                    Distance matrix (angstroms):
                    1          2          3
     1  C    0.000000
     2  H    1.081725   0.000000
     3  H    1.081725   1.987840   0.000000
 Stoichiometry    CH2(3)
 Framework group  C2V[C2(C),SGV(H2)]
 Deg. of freedom     2
 Full point group                 C2V     NOp   4
 Largest Abelian subgroup         C2V     NOp   4
 Largest concise Abelian subgroup C2      NOp   2
                         Standard orientation:                         
 ---------------------------------------------------------------------
 Center     Atomic      Atomic             Coordinates (Angstroms)
 Number     Number       Type             X           Y           Z
 ---------------------------------------------------------------------
      1          6           0        0.000000   -0.000000    0.106728
      2          1           0       -0.000000   -0.993920   -0.320183
      3          1           0        0.000000    0.993920   -0.320183
 ---------------------------------------------------------------------
 Rotational constants (GHZ):        1606.7941032         253.8044047         219.1829237
 Standard basis: 6-31G(d,p) (6D, 7F)
 There are    12 symmetry adapted cartesian basis functions of A1  symmetry.
 There are     2 symmetry adapted cartesian basis functions of A2  symmetry.
 There are     4 symmetry adapted cartesian basis functions of B1  symmetry.
 There are     7 symmetry adapted cartesian basis functions of B2  symmetry.
 There are    12 symmetry adapted basis functions of A1  symmetry.
 There are     2 symmetry adapted basis functions of A2  symmetry.
 There are     4 symmetry adapted basis functions of B1  symmetry.
 There are     7 symmetry adapted basis functions of B2  symmetry.
    25 basis functions,    42 primitive gaussians,    25 cartesian basis functions
     5 alpha electrons        3 beta electrons
       nuclear repulsion energy         6.1365757808 Hartrees.
 NAtoms=    3 NActive=    3 NUniq=    2 SFac= 2.25D+00 NAtFMM=   60 NAOKFM=F Big=F
 Integral buffers will be    131072 words long.
 Raffenetti 2 integral format.
 Two-electron integral symmetry is turned on.
 One-electron integrals computed using PRISM.
 NBasis=    25 RedAO= T EigKep=  3.62D-02  NBF=    12     2     4     7
 NBsUse=    25 1.00D-06 EigRej= -1.00D+00 NBFU=    12     2     4     7
 Initial guess from the checkpoint file:  "[CH2]-T.chk"
 B after Tr=     0.000000    0.000000   -0.000000
         Rot=    1.000000    0.000000   -0.000000    0.000000 Ang=   0.00 deg.
 Initial guess orbital symmetries:
 Alpha Orbitals:
       Occupied  (A1) (A1) (B2) (A1) (B1)
       Virtual   (A1) (B2) (A1) (B1) (B2) (A1) (A1) (B2) (A2) (A1)
                 (B1) (B2) (A1) (B1) (B2) (A1) (A2) (B2) (A1) (A1)
 Beta  Orbitals:
       Occupied  (A1) (A1) (B2)
       Virtual   (A1) (B1) (A1) (B2) (A1) (B2) (B1) (A1) (B2) (A1)
                 (A2) (A1) (B1) (B2) (A1) (B1) (B2) (A1) (A2) (B2)
                 (A1) (A1)
 Initial guess <Sx>= 0.0000 <Sy>= 0.0000 <Sz>= 1.0000 <S**2>= 2.0051 S= 1.0017
 Keep R1 and R2 ints in memory in symmetry-blocked form, NReq=6993093.
 Requested convergence on RMS density matrix=1.00D-08 within 128 cycles.
 Requested convergence on MAX density matrix=1.00D-06.
 Requested convergence on             energy=1.00D-06.
 Level shift goal  0.100 maximum shift  0.100.
 No special actions if energy rises.
 Dynamic level shift is on during FON iterations.
 SCF Done:  E(UB3LYP) =  -39.1534847706     A.U. after    8 cycles
            NFock=  8  Conv=0.59D-08     -V/T= 2.0090
 <Sx>= 0.0000 <Sy>= 0.0000 <Sz>= 1.0000 <S**2>= 2.0051 S= 1.0017
 <L.S>=  0.00000000000    
 Annihilation of the first spin contaminant:
 S**2 before annihilation     2.0051,   after     2.0000
 Calling FoFJK, ICntrl=      2127 FMM=F ISym2X=1 I1Cent= 0 IOpClX= 1 NMat=1 NMatS=1 NMatT=0.
 ***** Axes restored to original set *****
 -------------------------------------------------------------------
 Center     Atomic                   Forces (Hartrees/Bohr)
 Number     Number              X              Y              Z
 -------------------------------------------------------------------
      1        6          -0.000009346   -0.000013217   -0.000000000
      2        1          -0.000031709    0.000032335    0.000000000
      3        1           0.000041055   -0.000019118    0.000000000
 -------------------------------------------------------------------
 Cartesian Forces:  Max     0.000041055 RMS     0.000022020

 GradGradGradGradGradGradGradGradGradGradGradGradGradGradGradGradGradGrad
 Berny optimization.
 Using GEDIIS/GDIIS optimizer.
 FormGI is forming the generalized inverse of G from B-inverse, IUseBI=4.
 Internal  Forces:  Max     0.000044136 RMS     0.000037975
 Search for a local minimum.
 Step number   4 out of a maximum of   20
 All quantities printed in internal units (Hartrees-Bohrs-Radians)
 Mixed Optimization -- En-DIIS/RFO-DIIS
 Update second derivatives using D2CorX and points    1    2    3    4
 DE= -1.76D-05 DEPred=-1.59D-05 R= 1.10D+00
 TightC=F SS=  1.41D+00  RLast= 1.84D-02 DXNew= 8.4853D-01 5.5285D-02
 Trust test= 1.10D+00 RLast= 1.84D-02 DXMaxT set to 5.05D-01
 The second derivative matrix:
                          R1        R2        A1
           R1           0.38377
           R2           0.01147   0.38377
           A1           0.02282   0.02282   0.09055
 ITU=  1  1  1  0
 Use linear search instead of GDIIS.
     Eigenvalues ---    0.08717   0.37230   0.39862
 RFO step:  Lambda=-1.26304887D-08 EMin= 8.71712328D-02
 Quartic linear search produced a step of  0.00053.
 Iteration  1 RMS(Cart)=  0.00014738 RMS(Int)=  0.00000001
 Iteration  2 RMS(Cart)=  0.00000001 RMS(Int)=  0.00000000
 ClnCor:  largest displacement from symmetrization is 2.22D-16 for atom     2.
 Variable       Old X    -DE/DX   Delta X   Delta X   Delta X     New X
                                 (Linear)    (Quad)   (Total)
    R1        2.04416  -0.00004  -0.00000  -0.00010  -0.00010   2.04406
    R2        2.04416  -0.00004  -0.00000  -0.00010  -0.00010   2.04406
    A1        2.33020  -0.00002   0.00001  -0.00019  -0.00018   2.33003
         Item               Value     Threshold  Converged?
 Maximum Force            0.000044     0.000450     YES
 RMS     Force            0.000038     0.000300     YES
 Maximum Displacement     0.000159     0.001800     YES
 RMS     Displacement     0.000147     0.001200     YES
 Predicted change in Energy=-6.321499D-09
 Optimization completed.
    -- Stationary point found.
                           ----------------------------
                           !   Optimized Parameters   !
                           ! (Angstroms and Degrees)  !
 --------------------------                            --------------------------
 ! Name  Definition              Value          Derivative Info.                !
 --------------------------------------------------------------------------------
 ! R1    R(1,2)                  1.0817         -DE/DX =    0.0                 !
 ! R2    R(1,3)                  1.0817         -DE/DX =    0.0                 !
 ! A1    A(2,1,3)              133.5108         -DE/DX =    0.0                 !
 --------------------------------------------------------------------------------
 GradGradGradGradGradGradGradGradGradGradGradGradGradGradGradGradGradGrad

                          Input orientation:                          
 ---------------------------------------------------------------------
 Center     Atomic      Atomic             Coordinates (Angstroms)
 Number     Number       Type             X           Y           Z
 ---------------------------------------------------------------------
      1          6           0        0.083224   -0.103887   -0.000000
      2          1           0        0.648269   -1.026305    0.000000
      3          1           0       -0.974782    0.121395   -0.000000
 ---------------------------------------------------------------------
                    Distance matrix (angstroms):
                    1          2          3
     1  C    0.000000
     2  H    1.081725   0.000000
     3  H    1.081725   1.987840   0.000000
 Stoichiometry    CH2(3)
 Framework group  C2V[C2(C),SGV(H2)]
 Deg. of freedom     2
 Full point group                 C2V     NOp   4
 Largest Abelian subgroup         C2V     NOp   4
 Largest concise Abelian subgroup C2      NOp   2
                         Standard orientation:                         
 ---------------------------------------------------------------------
 Center     Atomic      Atomic             Coordinates (Angstroms)
 Number     Number       Type             X           Y           Z
 ---------------------------------------------------------------------
      1          6           0        0.000000   -0.000000    0.106728
      2          1           0       -0.000000   -0.993920   -0.320183
      3          1           0        0.000000    0.993920   -0.320183
 ---------------------------------------------------------------------
 Rotational constants (GHZ):        1606.7941032         253.8044047         219.1829237

 **********************************************************************

            Population analysis using the SCF Density.

 **********************************************************************

 Orbital symmetries:
 Alpha Orbitals:
       Occupied  (A1) (A1) (B2) (A1) (B1)
       Virtual   (A1) (B2) (A1) (B1) (B2) (A1) (A1) (B2) (A2) (A1)
                 (B1) (B2) (A1) (B1) (B2) (A1) (A2) (B2) (A1) (A1)
 Beta  Orbitals:
       Occupied  (A1) (A1) (B2)
       Virtual   (A1) (B1) (A1) (B2) (A1) (B2) (B1) (A1) (B2) (A1)
                 (A2) (A1) (B1) (B2) (A1) (B1) (B2) (A1) (A2) (B2)
                 (A1) (A1)
 The electronic state is 3-B1.
 Alpha  occ. eigenvalues --  -10.22206  -0.67290  -0.44855  -0.27213  -0.23592
 Alpha virt. eigenvalues --    0.10870   0.18418   0.52222   0.52791   0.58571
 Alpha virt. eigenvalues --    0.59740   0.89256   0.89890   1.40136   1.56224
 Alpha virt. eigenvalues --    1.58708   1.79206   1.95010   2.29657   2.41714
 Alpha virt. eigenvalues --    2.54655   2.60606   3.30527   3.40513   4.19598
  Beta  occ. eigenvalues --  -10.19393  -0.59645  -0.42735
  Beta virt. eigenvalues --   -0.06870  -0.03903   0.13181   0.20357   0.58534
  Beta virt. eigenvalues --    0.60626   0.61644   0.64725   0.92347   0.93395
  Beta virt. eigenvalues --    1.45391   1.67142   1.71354   1.81751   2.01974
  Beta virt. eigenvalues --    2.32667   2.44881   2.57014   2.64653   3.32623
  Beta virt. eigenvalues --    3.43836   4.26822
          Condensed to atoms (all electrons):
               1          2          3
     1  C    5.538238   0.361969   0.361969
     2  H    0.361969   0.541679  -0.034736
     3  H    0.361969  -0.034736   0.541679
          Atomic-Atomic Spin Densities.
               1          2          3
     1  C    2.146112  -0.026878  -0.026878
     2  H   -0.026878  -0.028354   0.009054
     3  H   -0.026878   0.009054  -0.028354
 Mulliken charges and spin densities:
               1          2
     1  C   -0.262176   2.092357
     2  H    0.131088  -0.046178
     3  H    0.131088  -0.046178
 Sum of Mulliken charges =  -0.00000   2.00000
 Mulliken charges and spin densities with hydrogens summed into heavy atoms:
               1          2
     1  C   -0.000000   2.000000
 Electronic spatial extent (au):  <R**2>=             23.5917
 Charge=             -0.0000 electrons
 Dipole moment (field-independent basis, Debye):
    X=              0.0000    Y=              0.0000    Z=             -0.6260  Tot=              0.6260
 Quadrupole moment (field-independent basis, Debye-Ang):
   XX=             -7.8204   YY=             -5.7243   ZZ=             -7.3839
   XY=              0.0000   XZ=             -0.0000   YZ=             -0.0000
 Traceless Quadrupole moment (field-independent basis, Debye-Ang):
   XX=             -0.8442   YY=              1.2519   ZZ=             -0.4076
   XY=              0.0000   XZ=             -0.0000   YZ=             -0.0000
 Octapole moment (field-independent basis, Debye-Ang**2):
  XXX=             -0.0000  YYY=              0.0000  ZZZ=             -0.7998  XYY=              0.0000
  XXY=              0.0000  XXZ=             -0.2734  XZZ=             -0.0000  YZZ=              0.0000
  YYZ=             -0.8568  XYZ=             -0.0000
 Hexadecapole moment (field-independent basis, Debye-Ang**3):
 XXXX=             -8.2123 YYYY=            -13.0294 ZZZZ=             -9.0633 XXXY=             -0.0000
 XXXZ=              0.0000 YYYX=             -0.0000 YYYZ=             -0.0000 ZZZX=              0.0000
 ZZZY=              0.0000 XXYY=             -4.0237 XXZZ=             -2.8909 YYZZ=             -3.8317
 XXYZ=              0.0000 YYXZ=             -0.0000 ZZXY=             -0.0000
 N-N= 6.136575780755D+00 E-N=-1.027698918585D+02  KE= 3.880474898968D+01
 Symmetry A1   KE= 3.564920288331D+01
 Symmetry A2   KE= 6.196162650148D-35
 Symmetry B1   KE= 1.183964445068D+00
 Symmetry B2   KE= 1.971581661300D+00
 Symmetry A1   SP= 1.000000000000D+00
 Symmetry A2   SP=-9.836708866243D-36
 Symmetry B1   SP= 1.000000000000D+00
 Symmetry B2   SP=-8.394977421555D-16
                          Isotropic Fermi Contact Couplings
        Atom                 a.u.       MegaHertz       Gauss      10(-4) cm-1
     1  C(13)              0.46797     263.04167      93.85981      87.74126
     2  H(1)              -0.00637     -14.22560      -5.07605      -4.74515
     3  H(1)              -0.00637     -14.22560      -5.07605      -4.74515
 --------------------------------------------------------
       Center         ----  Spin Dipole Couplings  ----
                      3XX-RR        3YY-RR        3ZZ-RR
 --------------------------------------------------------
     1   Atom        0.656813     -1.035173      0.378360
     2   Atom       -0.061337      0.115006     -0.053669
     3   Atom       -0.061337      0.115006     -0.053669
 --------------------------------------------------------
                        XY            XZ            YZ
 --------------------------------------------------------
     1   Atom        0.000000     -0.000000      0.000000
     2   Atom        0.000000     -0.000000      0.080167
     3   Atom        0.000000     -0.000000     -0.080167
 --------------------------------------------------------


 ---------------------------------------------------------------------------------
              Anisotropic Spin Dipole Couplings in Principal Axis System
 ---------------------------------------------------------------------------------

       Atom             a.u.   MegaHertz   Gauss  10(-4) cm-1        Axes

              Baa    -1.0352  -138.910   -49.567   -46.335 -0.0000  1.0000 -0.0000
     1 C(13)  Bbb     0.3784    50.772    18.117    16.936  0.0000  0.0000  1.0000
              Bcc     0.6568    88.138    31.450    29.400  1.0000  0.0000 -0.0000
 
              Baa    -0.0857   -45.721   -16.314   -15.251  0.0000 -0.3709  0.9287
     2 H(1)   Bbb    -0.0613   -32.726   -11.678   -10.916  1.0000  0.0000  0.0000
              Bcc     0.1470    78.447    27.992    26.167 -0.0000  0.9287  0.3709
 
              Baa    -0.0857   -45.721   -16.314   -15.251  0.0000  0.3709  0.9287
     3 H(1)   Bbb    -0.0613   -32.726   -11.678   -10.916  1.0000 -0.0000  0.0000
              Bcc     0.1470    78.447    27.992    26.167  0.0000  0.9287 -0.3709
 

 ---------------------------------------------------------------------------------

 Unable to Open any file for archive entry.
 1\1\GINC-LOCALHOST\FOpt\UB3LYP\6-31G(d,p)\C1H2(3)\ROOT\03-May-2022\0\\
 # opt freq=hinderedrotor B3LYP/6-31g(d,p) scf=fermi symm=veryloose pre
 ss=0.987 int=superfine\\[CH2]-T_1\\0,3\C,0.0832244493,-0.1038869327,0.
 \H,0.6482685615,-1.0263048775,0.\H,-0.9747820592,0.1213949838,0.\\Vers
 ion=ES64L-G16RevC.01\State=3-B1\HF=-39.1534848\S2=2.005144\S2-1=0.\S2A
 =2.000007\RMSD=5.890e-09\RMSF=2.202e-05\Dipole=-0.1422013,-0.2010978,0
 .\Quadrupole=0.5194494,0.1082095,-0.6276589,-0.5816263,0.,0.\PG=C02V [
 C2(C1),SGV(H2)]\\@
 The archive entry for this job was punched.


 If your ship doesn't come in, swim out to it!
                          -- Jonathan Winters
 Job cpu time:       0 days  0 hours  0 minutes 33.1 seconds.
 Elapsed time:       0 days  0 hours  0 minutes  5.1 seconds.
 File lengths (MBytes):  RWF=      6 Int=      0 D2E=      0 Chk=      1 Scr=      1
 Normal termination of Gaussian 16 at Tue May  3 08:41:16 2022.
 Link1:  Proceeding to internal job step number  2.
 ----------------------------------------------------------------------
 #N Geom=AllCheck Guess=TCheck SCRF=Check GenChk UB3LYP/6-31G(d,p) Freq
 ----------------------------------------------------------------------
 1/10=4,18=20,29=7,30=1,38=1,40=1,113=-987000/1,3;
 2/12=2,17=2,18=2,40=1/2;
 3/5=1,6=6,7=101,11=2,14=-4,25=1,30=1,70=2,71=2,74=-5,75=-7,116=2,140=1/1,2,3;
 4/5=101/1;
 5/5=2,22=13,38=6,98=1/2;
 8/6=4,10=90,11=11/1;
 11/6=1,8=1,9=11,15=111,16=1/1,2,10;
 10/6=1/2;
 6/7=2,8=2,9=2,10=2,28=1/1;
 7/8=2001,10=1,25=1/1,2,3,16;
 1/10=4,18=20,30=1/3;
 99//99;
 Structure from the checkpoint file:  "[CH2]-T.chk"
 ---------
 [CH2]-T_1
 ---------
 Charge =  0 Multiplicity = 3
 Redundant internal coordinates found in file.  (old form).
 C,0,0.0832244493,-0.1038869327,0.
 H,0,0.6482685615,-1.0263048775,0.
 H,0,-0.9747820592,0.1213949838,0.
 Recover connectivity data from disk.

 GradGradGradGradGradGradGradGradGradGradGradGradGradGradGradGradGradGrad
 Berny optimization.
 Initialization pass.
                           ----------------------------
                           !    Initial Parameters    !
                           ! (Angstroms and Degrees)  !
 --------------------------                            --------------------------
 ! Name  Definition              Value          Derivative Info.                !
 --------------------------------------------------------------------------------
 ! R1    R(1,2)                  1.0817         calculate D2E/DX2 analytically  !
 ! R2    R(1,3)                  1.0817         calculate D2E/DX2 analytically  !
 ! A1    A(2,1,3)              133.5108         calculate D2E/DX2 analytically  !
 --------------------------------------------------------------------------------
 Trust Radius=3.00D-01 FncErr=1.00D-07 GrdErr=1.00D-07 EigMax=2.50D+02 EigMin=1.00D-04
 Number of steps in this run=      2 maximum allowed number of steps=      2.
 GradGradGradGradGradGradGradGradGradGradGradGradGradGradGradGradGradGrad

                          Input orientation:                          
 ---------------------------------------------------------------------
 Center     Atomic      Atomic             Coordinates (Angstroms)
 Number     Number       Type             X           Y           Z
 ---------------------------------------------------------------------
      1          6           0        0.083224   -0.103887   -0.000000
      2          1           0        0.648269   -1.026305    0.000000
      3          1           0       -0.974782    0.121395   -0.000000
 ---------------------------------------------------------------------
                    Distance matrix (angstroms):
                    1          2          3
     1  C    0.000000
     2  H    1.081725   0.000000
     3  H    1.081725   1.987840   0.000000
 Stoichiometry    CH2(3)
 Framework group  C2V[C2(C),SGV(H2)]
 Deg. of freedom     2
 Full point group                 C2V     NOp   4
 Largest Abelian subgroup         C2V     NOp   4
 Largest concise Abelian subgroup C2      NOp   2
                         Standard orientation:                         
 ---------------------------------------------------------------------
 Center     Atomic      Atomic             Coordinates (Angstroms)
 Number     Number       Type             X           Y           Z
 ---------------------------------------------------------------------
      1          6           0        0.000000   -0.000000    0.106728
      2          1           0        0.000000   -0.993920   -0.320183
      3          1           0        0.000000    0.993920   -0.320183
 ---------------------------------------------------------------------
 Rotational constants (GHZ):        1606.7941032         253.8044047         219.1829237
 Standard basis: 6-31G(d,p) (6D, 7F)
 There are    12 symmetry adapted cartesian basis functions of A1  symmetry.
 There are     2 symmetry adapted cartesian basis functions of A2  symmetry.
 There are     4 symmetry adapted cartesian basis functions of B1  symmetry.
 There are     7 symmetry adapted cartesian basis functions of B2  symmetry.
 There are    12 symmetry adapted basis functions of A1  symmetry.
 There are     2 symmetry adapted basis functions of A2  symmetry.
 There are     4 symmetry adapted basis functions of B1  symmetry.
 There are     7 symmetry adapted basis functions of B2  symmetry.
    25 basis functions,    42 primitive gaussians,    25 cartesian basis functions
     5 alpha electrons        3 beta electrons
       nuclear repulsion energy         6.1365757808 Hartrees.
 NAtoms=    3 NActive=    3 NUniq=    2 SFac= 2.25D+00 NAtFMM=   60 NAOKFM=F Big=F
 Integral buffers will be    131072 words long.
 Raffenetti 2 integral format.
 Two-electron integral symmetry is turned on.
 One-electron integrals computed using PRISM.
 NBasis=    25 RedAO= T EigKep=  3.62D-02  NBF=    12     2     4     7
 NBsUse=    25 1.00D-06 EigRej= -1.00D+00 NBFU=    12     2     4     7
 Initial guess from the checkpoint file:  "[CH2]-T.chk"
 B after Tr=    -0.000000    0.000000   -0.000000
         Rot=    1.000000   -0.000000    0.000000    0.000000 Ang=   0.00 deg.
 Initial guess orbital symmetries:
 Alpha Orbitals:
       Occupied  (A1) (A1) (B2) (A1) (B1)
       Virtual   (A1) (B2) (A1) (B1) (B2) (A1) (A1) (B2) (A2) (A1)
                 (B1) (B2) (A1) (B1) (B2) (A1) (A2) (B2) (A1) (A1)
 Beta  Orbitals:
       Occupied  (A1) (A1) (B2)
       Virtual   (A1) (B1) (A1) (B2) (A1) (B2) (B1) (A1) (B2) (A1)
                 (A2) (A1) (B1) (B2) (A1) (B1) (B2) (A1) (A2) (B2)
                 (A1) (A1)
 Initial guess <Sx>= 0.0000 <Sy>= 0.0000 <Sz>= 1.0000 <S**2>= 2.0051 S= 1.0017
 Keep R1 and R2 ints in memory in symmetry-blocked form, NReq=6993093.
 Requested convergence on RMS density matrix=1.00D-08 within 128 cycles.
 Requested convergence on MAX density matrix=1.00D-06.
 Requested convergence on             energy=1.00D-06.
 Level shift goal  0.100 maximum shift  0.100.
 No special actions if energy rises.
 Dynamic level shift is on during FON iterations.
 SCF Done:  E(UB3LYP) =  -39.1534847706     A.U. after    1 cycles
            NFock=  1  Conv=0.33D-09     -V/T= 2.0090
 <Sx>= 0.0000 <Sy>= 0.0000 <Sz>= 1.0000 <S**2>= 2.0051 S= 1.0017
 <L.S>=  0.00000000000    
 Annihilation of the first spin contaminant:
 S**2 before annihilation     2.0051,   after     2.0000
 DoSCS=F DFT=T ScalE2(SS,OS)=  1.000000  1.000000
 Range of M.O.s used for correlation:     1    25
 NBasis=    25 NAE=     5 NBE=     3 NFC=     0 NFV=     0
 NROrb=     25 NOA=     5 NOB=     3 NVA=    20 NVB=    22
 Symmetrizing basis deriv contribution to polar:
 IMax=3 JMax=2 DiffMx= 0.00D+00
 G2DrvN: will do     4 centers at a time, making    1 passes.
 Calling FoFCou, ICntrl=  3107 FMM=F I1Cent=   0 AccDes= 0.00D+00.
 End of G2Drv F.D. properties file   721 does not exist.
 End of G2Drv F.D. properties file   722 does not exist.
 End of G2Drv F.D. properties file   788 does not exist.
          IDoAtm=111
          Differentiating once with respect to electric field.
                with respect to dipole field.
          Differentiating once with respect to nuclear coordinates.
 Keep R1 and R2 ints in memory in symmetry-blocked form, NReq=6945017.
          There are     9 degrees of freedom in the 1st order CPHF.  IDoFFX=4 NUNeed=     9.
      9 vectors produced by pass  0 Test12= 1.84D-15 1.11D-08 XBig12= 1.20D+01 2.05D+00.
 AX will form     9 AO Fock derivatives at one time.
      9 vectors produced by pass  1 Test12= 1.84D-15 1.11D-08 XBig12= 3.48D-01 2.39D-01.
      9 vectors produced by pass  2 Test12= 1.84D-15 1.11D-08 XBig12= 3.99D-03 3.49D-02.
      9 vectors produced by pass  3 Test12= 1.84D-15 1.11D-08 XBig12= 1.76D-05 2.13D-03.
      9 vectors produced by pass  4 Test12= 1.84D-15 1.11D-08 XBig12= 7.60D-08 1.04D-04.
      9 vectors produced by pass  5 Test12= 1.84D-15 1.11D-08 XBig12= 1.15D-10 3.16D-06.
      2 vectors produced by pass  6 Test12= 1.84D-15 1.11D-08 XBig12= 1.80D-13 1.19D-07.
 InvSVY:  IOpt=1 It=  1 EMax= 2.88D-16
 Solved reduced A of dimension    56 with     9 vectors.
 Isotropic polarizability for W=    0.000000        7.96 Bohr**3.
 End of Minotr F.D. properties file   721 does not exist.
 End of Minotr F.D. properties file   722 does not exist.
 End of Minotr F.D. properties file   788 does not exist.

 **********************************************************************

            Population analysis using the SCF Density.

 **********************************************************************

 Orbital symmetries:
 Alpha Orbitals:
       Occupied  (A1) (A1) (B2) (A1) (B1)
       Virtual   (A1) (B2) (A1) (B1) (B2) (A1) (A1) (B2) (A2) (A1)
                 (B1) (B2) (A1) (B1) (B2) (A1) (A2) (B2) (A1) (A1)
 Beta  Orbitals:
       Occupied  (A1) (A1) (B2)
       Virtual   (A1) (B1) (A1) (B2) (A1) (B2) (B1) (A1) (B2) (A1)
                 (A2) (A1) (B1) (B2) (A1) (B1) (B2) (A1) (A2) (B2)
                 (A1) (A1)
 The electronic state is 3-B1.
 Alpha  occ. eigenvalues --  -10.22206  -0.67290  -0.44855  -0.27213  -0.23592
 Alpha virt. eigenvalues --    0.10870   0.18418   0.52222   0.52791   0.58571
 Alpha virt. eigenvalues --    0.59740   0.89256   0.89890   1.40136   1.56224
 Alpha virt. eigenvalues --    1.58708   1.79206   1.95010   2.29657   2.41714
 Alpha virt. eigenvalues --    2.54655   2.60606   3.30527   3.40513   4.19598
  Beta  occ. eigenvalues --  -10.19393  -0.59645  -0.42735
  Beta virt. eigenvalues --   -0.06870  -0.03903   0.13181   0.20357   0.58534
  Beta virt. eigenvalues --    0.60626   0.61644   0.64725   0.92347   0.93395
  Beta virt. eigenvalues --    1.45391   1.67142   1.71354   1.81751   2.01974
  Beta virt. eigenvalues --    2.32667   2.44881   2.57014   2.64653   3.32623
  Beta virt. eigenvalues --    3.43836   4.26822
          Condensed to atoms (all electrons):
               1          2          3
     1  C    5.538238   0.361969   0.361969
     2  H    0.361969   0.541679  -0.034736
     3  H    0.361969  -0.034736   0.541679
          Atomic-Atomic Spin Densities.
               1          2          3
     1  C    2.146112  -0.026878  -0.026878
     2  H   -0.026878  -0.028354   0.009054
     3  H   -0.026878   0.009054  -0.028354
 Mulliken charges and spin densities:
               1          2
     1  C   -0.262176   2.092357
     2  H    0.131088  -0.046178
     3  H    0.131088  -0.046178
 Sum of Mulliken charges =   0.00000   2.00000
 Mulliken charges and spin densities with hydrogens summed into heavy atoms:
               1          2
     1  C    0.000000   2.000000
 APT charges:
               1
     1  C   -0.147579
     2  H    0.073789
     3  H    0.073789
 Sum of APT charges =  -0.00000
 APT charges with hydrogens summed into heavy atoms:
               1
     1  C   -0.000000
 Electronic spatial extent (au):  <R**2>=             23.5917
 Charge=              0.0000 electrons
 Dipole moment (field-independent basis, Debye):
    X=              0.0000    Y=              0.0000    Z=             -0.6260  Tot=              0.6260
 Quadrupole moment (field-independent basis, Debye-Ang):
   XX=             -7.8204   YY=             -5.7243   ZZ=             -7.3839
   XY=              0.0000   XZ=             -0.0000   YZ=             -0.0000
 Traceless Quadrupole moment (field-independent basis, Debye-Ang):
   XX=             -0.8442   YY=              1.2519   ZZ=             -0.4076
   XY=              0.0000   XZ=             -0.0000   YZ=             -0.0000
 Octapole moment (field-independent basis, Debye-Ang**2):
  XXX=             -0.0000  YYY=              0.0000  ZZZ=             -0.7998  XYY=              0.0000
  XXY=              0.0000  XXZ=             -0.2734  XZZ=             -0.0000  YZZ=              0.0000
  YYZ=             -0.8568  XYZ=             -0.0000
 Hexadecapole moment (field-independent basis, Debye-Ang**3):
 XXXX=             -8.2123 YYYY=            -13.0294 ZZZZ=             -9.0633 XXXY=             -0.0000
 XXXZ=              0.0000 YYYX=             -0.0000 YYYZ=             -0.0000 ZZZX=              0.0000
 ZZZY=             -0.0000 XXYY=             -4.0237 XXZZ=             -2.8909 YYZZ=             -3.8317
 XXYZ=             -0.0000 YYXZ=             -0.0000 ZZXY=             -0.0000
 N-N= 6.136575780755D+00 E-N=-1.027698918570D+02  KE= 3.880474898912D+01
 Symmetry A1   KE= 3.564920288479D+01
 Symmetry A2   KE= 6.238603756832D-35
 Symmetry B1   KE= 1.183964442428D+00
 Symmetry B2   KE= 1.971581661894D+00
 Symmetry A1   SP= 1.000000000000D+00
 Symmetry A2   SP=-1.070837479745D-35
 Symmetry B1   SP= 1.000000000000D+00
 Symmetry B2   SP=-9.161508357503D-17
  Exact polarizability:       5.072       0.000      12.198      -0.000      -0.000       6.611
 Approx polarizability:       5.781       0.000      13.979      -0.000       0.000       7.533
                          Isotropic Fermi Contact Couplings
        Atom                 a.u.       MegaHertz       Gauss      10(-4) cm-1
     1  C(13)              0.46797     263.04167      93.85981      87.74126
     2  H(1)              -0.00637     -14.22561      -5.07605      -4.74515
     3  H(1)              -0.00637     -14.22561      -5.07605      -4.74515
 --------------------------------------------------------
       Center         ----  Spin Dipole Couplings  ----
                      3XX-RR        3YY-RR        3ZZ-RR
 --------------------------------------------------------
     1   Atom        0.656813     -1.035173      0.378360
     2   Atom       -0.061337      0.115006     -0.053669
     3   Atom       -0.061337      0.115006     -0.053669
 --------------------------------------------------------
                        XY            XZ            YZ
 --------------------------------------------------------
     1   Atom        0.000000     -0.000000     -0.000000
     2   Atom        0.000000     -0.000000      0.080167
     3   Atom        0.000000     -0.000000     -0.080167
 --------------------------------------------------------


 ---------------------------------------------------------------------------------
              Anisotropic Spin Dipole Couplings in Principal Axis System
 ---------------------------------------------------------------------------------

       Atom             a.u.   MegaHertz   Gauss  10(-4) cm-1        Axes

              Baa    -1.0352  -138.910   -49.567   -46.335  0.0000  1.0000 -0.0000
     1 C(13)  Bbb     0.3784    50.772    18.117    16.936  0.0000  0.0000  1.0000
              Bcc     0.6568    88.138    31.450    29.400  1.0000 -0.0000 -0.0000
 
              Baa    -0.0857   -45.721   -16.314   -15.251  0.0000 -0.3709  0.9287
     2 H(1)   Bbb    -0.0613   -32.726   -11.678   -10.916  1.0000  0.0000  0.0000
              Bcc     0.1470    78.447    27.992    26.167 -0.0000  0.9287  0.3709
 
              Baa    -0.0857   -45.721   -16.314   -15.251  0.0000  0.3709  0.9287
     3 H(1)   Bbb    -0.0613   -32.726   -11.678   -10.916  1.0000 -0.0000  0.0000
              Bcc     0.1470    78.447    27.992    26.167  0.0000  0.9287 -0.3709
 

 ---------------------------------------------------------------------------------

 Calling FoFJK, ICntrl=    100127 FMM=F ISym2X=1 I1Cent= 0 IOpClX= 1 NMat=1 NMatS=1 NMatT=0.
 Full mass-weighted force constant matrix:
 Low frequencies ---   -0.0010   -0.0004    0.0011   16.2253   27.2580   29.2453
 Low frequencies --- 1098.2729 3144.2471 3378.1797
 Diagonal vibrational polarizability:
        0.0000000       0.0020105       0.1883509

 rotorrotorrotorrotorrotorrotorrotorrotorrotorrotorrotor

           Hindered Internal Rotation Analysis

 rotorrotorrotorrotorrotorrotorrotorrotorrotorrotorrotor

 Internal coordinate list sorted
 Checking for planar centers
 Checking for ring deformation
 Checking reduced barrier height
 Cut-off : V/RT =     33.756
 Number of internal rotation degrees of freedom =             0
 No hindered rotor corrections are necessary.

 Harmonic frequencies (cm**-1), IR intensities (KM/Mole), Raman scattering
 activities (A**4/AMU), depolarization ratios for plane and unpolarized
 incident light, reduced masses (AMU), force constants (mDyne/A),
 and normal coordinates:
                      1                      2                      3
                     ?A                     A1                     ?B
 Frequencies --   1098.2729              3144.2471              3378.1797
 Red. masses --      1.1355                 1.0276                 1.1372
 Frc consts  --      0.8070                 5.9859                 7.6463
 IR Inten    --      8.2487                 1.5859                 0.8526
  Atom  AN      X      Y      Z        X      Y      Z        X      Y      Z
     1   6     0.00  -0.00  -0.11     0.00  -0.00  -0.04    -0.00  -0.12   0.00
     2   1    -0.00  -0.31   0.68     0.00   0.67   0.26     0.00   0.69   0.30
     3   1    -0.00   0.31   0.68    -0.00  -0.67   0.26     0.00   0.69  -0.30

 -------------------
 - Thermochemistry -
 -------------------
 Temperature   298.150 Kelvin.  Pressure   0.98700 Atm.
 Atom     1 has atomic number  6 and mass  12.00000
 Atom     2 has atomic number  1 and mass   1.00783
 Atom     3 has atomic number  1 and mass   1.00783
 Molecular mass:    14.01565 amu.
 Principal axes and moments of inertia in atomic units:
                           1         2         3
     Eigenvalues --     1.12319   7.11076   8.23395
           X            0.00000  -0.00000   1.00000
           Y            1.00000  -0.00000  -0.00000
           Z            0.00000   1.00000   0.00000
 This molecule is an asymmetric top.
 Rotational symmetry number  2.
 Rotational temperatures (Kelvin)     77.11396    12.18069    10.51912
 Rotational constants (GHZ):        1606.79410   253.80440   219.18292
 Zero-point vibrational energy      45581.9 (Joules/Mol)
                                   10.89434 (Kcal/Mol)
 Vibrational temperatures:   1580.17  4523.87  4860.45
          (Kelvin)
 
 Zero-point correction=                           0.017361 (Hartree/Particle)
 Thermal correction to Energy=                    0.020219
 Thermal correction to Enthalpy=                  0.021163
 Thermal correction to Gibbs Free Energy=        -0.001034
 Sum of electronic and zero-point Energies=            -39.136124
 Sum of electronic and thermal Energies=               -39.133266
 Sum of electronic and thermal Enthalpies=             -39.132322
 Sum of electronic and thermal Free Energies=          -39.154519
 
                     E (Thermal)             CV                S
                      KCal/Mol        Cal/Mol-Kelvin    Cal/Mol-Kelvin
 Total                   12.688              6.243             46.717
 Electronic               0.000              0.000              2.183
 Translational            0.889              2.981             33.887
 Rotational               0.889              2.981             10.585
 Vibrational             10.910              0.282              0.063
                       Q            Log10(Q)             Ln(Q)
 Total Bot       0.298917D+01          0.475551          1.094997
 Total V=0       0.289172D+09          8.461156         19.482533
 Vib (Bot)       0.103889D-07         -7.983431        -18.382530
 Vib (V=0)       0.100502D+01          0.002174          0.005005
 Electronic      0.300000D+01          0.477121          1.098612
 Translational   0.208957D+07          6.320057         14.552468
 Rotational      0.458992D+02          1.661805          3.826447
 ***** Axes restored to original set *****
 -------------------------------------------------------------------
 Center     Atomic                   Forces (Hartrees/Bohr)
 Number     Number              X              Y              Z
 -------------------------------------------------------------------
      1        6          -0.000009346   -0.000013217   -0.000000000
      2        1          -0.000031709    0.000032335   -0.000000000
      3        1           0.000041055   -0.000019119    0.000000000
 -------------------------------------------------------------------
 Cartesian Forces:  Max     0.000041055 RMS     0.000022021
 FormGI is forming the generalized inverse of G from B-inverse, IUseBI=4.

 GradGradGradGradGradGradGradGradGradGradGradGradGradGradGradGradGradGrad
 Berny optimization.
 Internal  Forces:  Max     0.000044137 RMS     0.000037976
 Search for a local minimum.
 Step number   1 out of a maximum of    2
 All quantities printed in internal units (Hartrees-Bohrs-Radians)
 Second derivative matrix not updated -- analytic derivatives used.
 The second derivative matrix:
                          R1        R2        A1
           R1           0.37487
           R2          -0.00633   0.37487
           A1           0.01561   0.01561   0.08547
 ITU=  0
     Eigenvalues ---    0.08376   0.37026   0.38120
 Angle between quadratic step and forces=  33.73 degrees.
 Linear search not attempted -- first point.
 Iteration  1 RMS(Cart)=  0.00016501 RMS(Int)=  0.00000001
 Iteration  2 RMS(Cart)=  0.00000001 RMS(Int)=  0.00000000
 ClnCor:  largest displacement from symmetrization is 6.55D-16 for atom     1.
 Variable       Old X    -DE/DX   Delta X   Delta X   Delta X     New X
                                 (Linear)    (Quad)   (Total)
    R1        2.04416  -0.00004   0.00000  -0.00011  -0.00011   2.04405
    R2        2.04416  -0.00004   0.00000  -0.00011  -0.00011   2.04405
    A1        2.33020  -0.00002   0.00000  -0.00020  -0.00020   2.33000
         Item               Value     Threshold  Converged?
 Maximum Force            0.000044     0.000450     YES
 RMS     Force            0.000038     0.000300     YES
 Maximum Displacement     0.000178     0.001800     YES
 RMS     Displacement     0.000165     0.001200     YES
 Predicted change in Energy=-7.004504D-09
 Optimization completed.
    -- Stationary point found.
                           ----------------------------
                           !   Optimized Parameters   !
                           ! (Angstroms and Degrees)  !
 --------------------------                            --------------------------
 ! Name  Definition              Value          Derivative Info.                !
 --------------------------------------------------------------------------------
 ! R1    R(1,2)                  1.0817         -DE/DX =    0.0                 !
 ! R2    R(1,3)                  1.0817         -DE/DX =    0.0                 !
 ! A1    A(2,1,3)              133.5108         -DE/DX =    0.0                 !
 --------------------------------------------------------------------------------
 GradGradGradGradGradGradGradGradGradGradGradGradGradGradGradGradGradGrad


 ----------------------------------------------------------------------

 Electric dipole moment (input orientation):
 (Debye = 10**-18 statcoulomb cm , SI units = C m)
                  (au)            (Debye)         (10**-30 SI)
   Tot        0.246296D+00      0.626021D+00      0.208818D+01
   x         -0.142201D+00     -0.361440D+00     -0.120563D+01
   y         -0.201098D+00     -0.511140D+00     -0.170498D+01
   z          0.000000D+00      0.000000D+00      0.000000D+00

 Dipole polarizability, Alpha (input orientation).
 (esu units = cm**3 , SI units = C**2 m**2 J**-1)
 Alpha(0;0):
               (au)            (10**-24 esu)      (10**-40 SI)
   iso        0.796033D+01      0.117960D+01      0.131248D+01
   aniso      0.649509D+01      0.962473D+00      0.107090D+01
   xx         0.103358D+02      0.153160D+01      0.170414D+01
   yx        -0.263382D+01     -0.390291D+00     -0.434258D+00
   yy         0.847352D+01      0.125565D+01      0.139709D+01
   zx         0.000000D+00      0.000000D+00      0.000000D+00
   zy         0.000000D+00      0.000000D+00      0.000000D+00
   zz         0.507172D+01      0.751551D+00      0.836213D+00

 ----------------------------------------------------------------------

 Dipole orientation:
     6          0.19739172         -0.13958064          0.06948920
     1          1.73095230         -1.22399985          0.87623328
     1         -1.33616886          0.94483856          0.87623328

 Electric dipole moment (dipole orientation):
 (Debye = 10**-18 statcoulomb cm , SI units = C m)
                  (au)            (Debye)         (10**-30 SI)
   Tot        0.246296D+00      0.626021D+00      0.208818D+01
   x          0.000000D+00      0.000000D+00      0.000000D+00
   y          0.000000D+00      0.000000D+00      0.000000D+00
   z          0.246296D+00      0.626021D+00      0.208818D+01

 Dipole polarizability, Alpha (dipole orientation).
 (esu units = cm**3 , SI units = C**2 m**2 J**-1)
 Alpha(0;0):
               (au)            (10**-24 esu)      (10**-40 SI)
   iso        0.796033D+01      0.117960D+01      0.131248D+01
   aniso      0.649509D+01      0.962473D+00      0.107090D+01
   xx         0.982262D+01      0.145556D+01      0.161953D+01
   yx        -0.335949D+01     -0.497825D+00     -0.553905D+00
   yy         0.744729D+01      0.110358D+01      0.122789D+01
   zx         0.000000D+00      0.000000D+00      0.000000D+00
   zy         0.000000D+00      0.000000D+00      0.000000D+00
   zz         0.661108D+01      0.979661D+00      0.109002D+01

 ----------------------------------------------------------------------
 Unable to Open any file for archive entry.
 1\1\GINC-LOCALHOST\Freq\UB3LYP\6-31G(d,p)\C1H2(3)\ROOT\03-May-2022\0\\
 #N Geom=AllCheck Guess=TCheck SCRF=Check GenChk UB3LYP/6-31G(d,p) Freq
 \\[CH2]-T_1\\0,3\C,0.0832244493,-0.1038869327,0.\H,0.6482685615,-1.026
 3048775,0.\H,-0.9747820592,0.1213949838,0.\\Version=ES64L-G16RevC.01\S
 tate=3-B1\HF=-39.1534848\S2=2.005144\S2-1=0.\S2A=2.000007\RMSD=3.333e-
 10\RMSF=2.202e-05\ZeroPoint=0.0173612\Thermal=0.0202189\ETot=-39.13326
 59\HTot=-39.1323217\GTot=-39.1545187\Dipole=-0.1422013,-0.2010978,0.\D
 ipoleDeriv=-0.0476584,-0.0595818,0.,-0.0595818,-0.0897858,0.,0.,0.,-0.
 3052925,0.0534736,0.0073604,0.,0.0731815,0.0152485,0.,0.,0.,0.1526463,
 -0.0058152,0.0522214,0.,-0.0135997,0.0745373,0.,0.,0.,0.1526463\Polar=
 10.3357646,-2.6338163,8.4735201,0.,0.,5.071716\Quadrupole=0.5194494,0.
 1082095,-0.627659,-0.5816263,0.,0.\PG=C02V [C2(C1),SGV(H2)]\NImag=0\\0
 .48302130,-0.22716397,0.32240461,0.,0.,0.00001719,-0.12530391,0.139699
 07,0.,0.12397775,0.16962908,-0.27740905,0.,-0.16132247,0.27137506,0.,0
 .,-0.00000860,0.,0.,0.00001847,-0.35771739,0.08746489,0.,0.00132616,-0
 .00830661,0.,0.35639123,0.05753489,-0.04499556,0.,0.02162340,0.0060339
 9,0.,-0.07915829,0.03896157,0.,0.,-0.00000860,0.,0.,-0.00000987,0.,0.,
 0.00001847\\0.00000935,0.00001322,0.,0.00003171,-0.00003234,0.,-0.0000
 4106,0.00001912,0.\\\@
 The archive entry for this job was punched.


[...]
 Vib (V=0)       0.380782D+01          0.580676          1.337056
 Vib (V=0)    1  0.241131D+01          0.382254          0.880172
 Vib (V=0)    2  0.127515D+01          0.105560          0.243060
 Vib (V=0)    3  0.123840D+01          0.092863          0.213824
 Electronic      0.300000D+01          0.477121          1.098612
 Translational   0.643465D+09          8.808525         20.282377
 Rotational      0.142852D+04          3.154886          7.264393
 ***** Axes restored to original set *****
 -------------------------------------------------------------------
 Center     Atomic                   Forces (Hartrees/Bohr)
 Number     Number              X              Y              Z
 -------------------------------------------------------------------
      1        6          -0.000009346   -0.000013217   -0.000000000
      2        1          -0.000031709    0.000032335   -0.000000000
      3        1           0.000041055   -0.000019119    0.000000000
 -------------------------------------------------------------------
 Cartesian Forces:  Max     0.000041055 RMS     0.000022021
 FormGI is forming the generalized inverse of G from B-inverse, IUseBI=4.

 ----------------------------------------------------------------------

 Electric dipole moment (input orientation):
 (Debye = 10**-18 statcoulomb cm , SI units = C m)
                  (au)            (Debye)         (10**-30 SI)
   Tot        0.246296D+00      0.626021D+00      0.208818D+01
   x         -0.142201D+00     -0.361440D+00     -0.120563D+01
   y         -0.201098D+00     -0.511140D+00     -0.170498D+01
   z          0.000000D+00      0.000000D+00      0.000000D+00

 Dipole polarizability, Alpha (input orientation).
 (esu units = cm**3 , SI units = C**2 m**2 J**-1)
 Alpha(0;0):
               (au)            (10**-24 esu)      (10**-40 SI)
   iso        0.796033D+01      0.117960D+01      0.131248D+01
   aniso      0.649509D+01      0.962473D+00      0.107090D+01
   xx         0.103358D+02      0.153160D+01      0.170414D+01
   yx        -0.263382D+01     -0.390291D+00     -0.434258D+00
   yy         0.847352D+01      0.125565D+01      0.139709D+01
   zx         0.000000D+00      0.000000D+00      0.000000D+00
   zy         0.000000D+00      0.000000D+00      0.000000D+00
   zz         0.507172D+01      0.751551D+00      0.836213D+00

 ----------------------------------------------------------------------

 Dipole orientation:
     6          0.19739172         -0.13958064          0.06948920
     1          1.73095230         -1.22399985          0.87623328
     1         -1.33616886          0.94483856          0.87623328

 Electric dipole moment (dipole orientation):
 (Debye = 10**-18 statcoulomb cm , SI units = C m)
                  (au)            (Debye)         (10**-30 SI)
   Tot        0.246296D+00      0.626021D+00      0.208818D+01
   x          0.000000D+00      0.000000D+00      0.000000D+00
   y          0.000000D+00      0.000000D+00      0.000000D+00
   z          0.246296D+00      0.626021D+00      0.208818D+01

 Dipole polarizability, Alpha (dipole orientation).
 (esu units = cm**3 , SI units = C**2 m**2 J**-1)
 Alpha(0;0):
               (au)            (10**-24 esu)      (10**-40 SI)
   iso        0.796033D+01      0.117960D+01      0.131248D+01
   aniso      0.649509D+01      0.962473D+00      0.107090D+01
   xx         0.982262D+01      0.145556D+01      0.161953D+01
   yx        -0.335949D+01     -0.497825D+00     -0.553905D+00
   yy         0.744729D+01      0.110358D+01      0.122789D+01
   zx         0.000000D+00      0.000000D+00      0.000000D+00
   zy         0.000000D+00      0.000000D+00      0.000000D+00
   zz         0.661108D+01      0.979661D+00      0.109002D+01

 ----------------------------------------------------------------------

 This type of calculation cannot be archived.


 IF YOU GIVE EVERYONE A PIECE OF YOUR MIND,
 PRETTY SOON IT WILL BE ALL GONE.
 Job cpu time:       0 days  0 hours  0 minutes  0.4 seconds.
 Elapsed time:       0 days  0 hours  0 minutes  0.4 seconds.
 File lengths (MBytes):  RWF=      6 Int=      0 D2E=      0 Chk=      1 Scr=      1
 Normal termination of Gaussian 16 at Tue May  3 08:41:42 2022.
 Initial command:
 /software//g16/l1.exe "/home/tmp/g16/Gau-2276922.inp" -scrdir="/home/tmp/g16/"
 Entering Link 1 = /software//g16/l1.exe PID=   2277508.
  
 Copyright (c) 1988-2019, Gaussian, Inc.  All Rights Reserved.
  
 This is part of the Gaussian(R) 16 program.  It is based on
 the Gaussian(R) 09 system (copyright 2009, Gaussian, Inc.),
 the Gaussian(R) 03 system (copyright 2003, Gaussian, Inc.),
 the Gaussian(R) 98 system (copyright 1998, Gaussian, Inc.),
 the Gaussian(R) 94 system (copyright 1995, Gaussian, Inc.),
 the Gaussian 92(TM) system (copyright 1992, Gaussian, Inc.),
 the Gaussian 90(TM) system (copyright 1990, Gaussian, Inc.),
 the Gaussian 88(TM) system (copyright 1988, Gaussian, Inc.),
 the Gaussian 86(TM) system (copyright 1986, Carnegie Mellon
 University), and the Gaussian 82(TM) system (copyright 1983,
 Carnegie Mellon University). Gaussian is a federally registered
 trademark of Gaussian, Inc.
  
 This software contains proprietary and confidential information,
 including trade secrets, belonging to Gaussian, Inc.
  
 This software is provided under written license and may be
 used, copied, transmitted, or stored only in accord with that
 written license.
  
 The following legend is applicable only to US Government
 contracts under FAR:
  
                    RESTRICTED RIGHTS LEGEND
  
 Use, reproduction and disclosure by the US Government is
 subject to restrictions as set forth in subparagraphs (a)
 and (c) of the Commercial Computer Software - Restricted
 Rights clause in FAR 52.227-19.
  
 Gaussian, Inc.
 340 Quinnipiac St., Bldg. 40, Wallingford CT 06492
  
  
 ---------------------------------------------------------------
 Warning -- This program may not be used in any manner that
 competes with the business of Gaussian, Inc. or will provide
 assistance to any competitor of Gaussian, Inc.  The licensee
 of this program is prohibited from giving any competitor of
 Gaussian, Inc. access to this program.  By using this program,
 the user acknowledges that Gaussian, Inc. is engaged in the
 business of creating and licensing software in the field of
 computational chemistry and represents and warrants to the
 licensee that it is not a competitor of Gaussian, Inc. and that
 it will not use this program in any manner prohibited above.
 ---------------------------------------------------------------
  

 Cite this work as:
 Gaussian 16, Revision C.01,
 M. J. Frisch, G. W. Trucks, H. B. Schlegel, G. E. Scuseria, 
 M. A. Robb, J. R. Cheeseman, G. Scalmani, V. Barone, 
 G. A. Petersson, H. Nakatsuji, X. Li, M. Caricato, A. V. Marenich, 
 J. Bloino, B. G. Janesko, R. Gomperts, B. Mennucci, H. P. Hratchian, 
 J. V. Ortiz, A. F. Izmaylov, J. L. Sonnenberg, D. Williams-Young, 
 F. Ding, F. Lipparini, F. Egidi, J. Goings, B. Peng, A. Petrone, 
 T. Henderson, D. Ranasinghe, V. G. Zakrzewski, J. Gao, N. Rega, 
 G. Zheng, W. Liang, M. Hada, M. Ehara, K. Toyota, R. Fukuda, 
 J. Hasegawa, M. Ishida, T. Nakajima, Y. Honda, O. Kitao, H. Nakai, 
 T. Vreven, K. Throssell, J. A. Montgomery, Jr., J. E. Peralta, 
 F. Ogliaro, M. J. Bearpark, J. J. Heyd, E. N. Brothers, K. N. Kudin, 
 V. N. Staroverov, T. A. Keith, R. Kobayashi, J. Normand, 
 K. Raghavachari, A. P. Rendell, J. C. Burant, S. S. Iyengar, 
 J. Tomasi, M. Cossi, J. M. Millam, M. Klene, C. Adamo, R. Cammi, 
 J. W. Ochterski, R. L. Martin, K. Morokuma, O. Farkas, 
 J. B. Foresman, and D. J. Fox, Gaussian, Inc., Wallingford CT, 2019.
 
 ******************************************
 Gaussian 16:  ES64L-G16RevC.01  3-Jul-2019
                 3-May-2022 
 ******************************************
 %chk=[CH2]-T.chk
 ----------------------------------------------------------------------
 # freq=(readfc,hinderedrotor) temp=3000 press=0.987 geom=allcheck gues
 s=read
 ----------------------------------------------------------------------
 1/18=20,29=7,38=1,112=3000000,113=-987000,172=1/1;
 2/12=2,40=1/2;
 7/8=2001,25=11/16;
 99/5=2/99;
 Structure from the checkpoint file:  "[CH2]-T.chk"
 ---------
 [CH2]-T_1
 ---------
 Charge =  0 Multiplicity = 3
 Redundant internal coordinates found in file.  (old form).
 C,0,0.0832244493,-0.1038869327,0.
 H,0,0.6482685615,-1.0263048775,0.
 H,0,-0.9747820592,0.1213949838,0.
 Recover connectivity data from disk.
                           ----------------------------
                           !    Current Parameters    !
                           ! (Angstroms and Degrees)  !
 --------------------------                            --------------------------
 ! Name  Definition              Value          Derivative Info.                !
 --------------------------------------------------------------------------------
 ! R1    R(1,2)                  1.0817         estimate D2E/DX2                !
 ! R2    R(1,3)                  1.0817         estimate D2E/DX2                !
 ! A1    A(2,1,3)              133.5108         estimate D2E/DX2                !
 --------------------------------------------------------------------------------
                          Input orientation:                          
 ---------------------------------------------------------------------
 Center     Atomic      Atomic             Coordinates (Angstroms)
 Number     Number       Type             X           Y           Z
 ---------------------------------------------------------------------
      1          6           0        0.083224   -0.103887   -0.000000
      2          1           0        0.648269   -1.026305    0.000000
      3          1           0       -0.974782    0.121395   -0.000000
 ---------------------------------------------------------------------
                    Distance matrix (angstroms):
                    1          2          3
     1  C    0.000000
     2  H    1.081725   0.000000
     3  H    1.081725   1.987840   0.000000
 Stoichiometry    CH2(3)
 Framework group  C2V[C2(C),SGV(H2)]
 Deg. of freedom     2
 Full point group                 C2V     NOp   4
 Largest Abelian subgroup         C2V     NOp   4
 Largest concise Abelian subgroup C2      NOp   2
                         Standard orientation:                         
 ---------------------------------------------------------------------
 Center     Atomic      Atomic             Coordinates (Angstroms)
 Number     Number       Type             X           Y           Z
 ---------------------------------------------------------------------
      1          6           0        0.000000   -0.000000    0.106728
      2          1           0        0.000000   -0.993920   -0.320183
      3          1           0        0.000000    0.993920   -0.320183
 ---------------------------------------------------------------------
 Rotational constants (GHZ):        1606.7941032         253.8044047         219.1829237
 Electric field and nuclear coordinate derivatives read from checkpoint file.
 Rotating derivatives to standard orientation.
 Full mass-weighted force constant matrix:
 Low frequencies ---   -0.0010   -0.0004    0.0011   16.2253   27.2580   29.2453
 Low frequencies --- 1098.2729 3144.2471 3378.1797
 Diagonal vibrational polarizability:
        0.0000000       0.0020105       0.1883509

 rotorrotorrotorrotorrotorrotorrotorrotorrotorrotorrotor

           Hindered Internal Rotation Analysis

 rotorrotorrotorrotorrotorrotorrotorrotorrotorrotorrotor

 Internal coordinate list sorted
 Checking for planar centers
 Checking for ring deformation
 Checking reduced barrier height
 Cut-off : V/RT =      3.355
 Number of internal rotation degrees of freedom =             0
 No hindered rotor corrections are necessary.

 Harmonic frequencies (cm**-1), IR intensities (KM/Mole), Raman scattering
 activities (A**4/AMU), depolarization ratios for plane and unpolarized
 incident light, reduced masses (AMU), force constants (mDyne/A),
 and normal coordinates:
                      1                      2                      3
                     ?A                     A1                     ?B
 Frequencies --   1098.2729              3144.2471              3378.1797
 Red. masses --      1.1355                 1.0276                 1.1372
 Frc consts  --      0.8070                 5.9859                 7.6463
 IR Inten    --      8.2487                 1.5859                 0.8526
  Atom  AN      X      Y      Z        X      Y      Z        X      Y      Z
     1   6     0.00  -0.00  -0.11     0.00  -0.00  -0.04    -0.00  -0.12   0.00
     2   1    -0.00  -0.31   0.68     0.00   0.67   0.26     0.00   0.69   0.30
     3   1    -0.00   0.31   0.68    -0.00  -0.67   0.26     0.00   0.69  -0.30

 -------------------
 - Thermochemistry -
 -------------------
 Temperature  3000.000 Kelvin.  Pressure   0.98700 Atm.
 Atom     1 has atomic number  6 and mass  12.00000
 Atom     2 has atomic number  1 and mass   1.00783
 Atom     3 has atomic number  1 and mass   1.00783
 Molecular mass:    14.01565 amu.
 Principal axes and moments of inertia in atomic units:
                           1         2         3
     Eigenvalues --     1.12319   7.11076   8.23395
           X            0.00000  -0.00000   1.00000
           Y            1.00000   0.00000  -0.00000
           Z           -0.00000   1.00000   0.00000
 This molecule is an asymmetric top.
 Rotational symmetry number  2.
 Rotational temperatures (Kelvin)     77.11396    12.18069    10.51912
 Rotational constants (GHZ):        1606.79410   253.80440   219.18292
 Zero-point vibrational energy      45581.9 (Joules/Mol)
                                   10.89434 (Kcal/Mol)
 Warning -- explicit consideration of   3 degrees of freedom as
           vibrations may cause significant error
 Vibrational temperatures:   1580.17  4523.87  4860.45
          (Kelvin)
 
 Zero-point correction=                           0.017361 (Hartree/Particle)
 Thermal correction to Energy=                    0.060949
 Thermal correction to Enthalpy=                  0.070450
 Thermal correction to Gibbs Free Energy=        -0.268376
 Sum of electronic and zero-point Energies=            -39.136124
 Sum of electronic and thermal Energies=               -39.092535
 Sum of electronic and thermal Enthalpies=             -39.083035
 Sum of electronic and thermal Free Energies=          -39.421861
 
                     E (Thermal)             CV                S
                      KCal/Mol        Cal/Mol-Kelvin    Cal/Mol-Kelvin
 Total                   38.246             11.158             70.872
 Electronic               0.000              0.000              2.183
 Translational            8.942              2.981             45.357
 Rotational               8.942              2.981             17.467
 Vibrational             20.361              5.196              5.865
 Vibration     1          6.099              1.942              3.284
 Vibration     2          7.051              1.650              1.349
 Vibration     3          7.212              1.604              1.232
                       Q            Log10(Q)             Ln(Q)
 Total Bot       0.185480D+13         12.268297         28.248797
 Total V=0       0.115327D+14         13.061933         30.076212
 Vib (Bot)       0.628881D+00         -0.201432         -0.463814
 Vib (Bot)    1  0.187676D+01          0.273409          0.629547
 Vib (Bot)    2  0.604249D+00         -0.218784         -0.503770
 Vib (Bot)    3  0.554554D+00         -0.256056         -0.589591
 Vib (V=0)       0.391025D+01          0.592204          1.363601
 Vib (V=0)    1  0.244222D+01          0.387785          0.892908
 Vib (V=0)    2  0.128429D+01          0.108664          0.250209
 Vib (V=0)    3  0.124668D+01          0.095755          0.220484
 Electronic      0.300000D+01          0.477121          1.098612
 Translational   0.671078D+09          8.826773         20.324395
 Rotational      0.146499D+04          3.165835          7.289604
 ***** Axes restored to original set *****
 -------------------------------------------------------------------
 Center     Atomic                   Forces (Hartrees/Bohr)
 Number     Number              X              Y              Z
 -------------------------------------------------------------------
      1        6          -0.000009346   -0.000013217   -0.000000000
      2        1          -0.000031709    0.000032335   -0.000000000
      3        1           0.000041055   -0.000019119    0.000000000
 -------------------------------------------------------------------
 Cartesian Forces:  Max     0.000041055 RMS     0.000022021
 FormGI is forming the generalized inverse of G from B-inverse, IUseBI=4.

 ----------------------------------------------------------------------

 Electric dipole moment (input orientation):
 (Debye = 10**-18 statcoulomb cm , SI units = C m)
                  (au)            (Debye)         (10**-30 SI)
   Tot        0.246296D+00      0.626021D+00      0.208818D+01
   x         -0.142201D+00     -0.361440D+00     -0.120563D+01
   y         -0.201098D+00     -0.511140D+00     -0.170498D+01
   z          0.000000D+00      0.000000D+00      0.000000D+00

 Dipole polarizability, Alpha (input orientation).
 (esu units = cm**3 , SI units = C**2 m**2 J**-1)
 Alpha(0;0):
               (au)            (10**-24 esu)      (10**-40 SI)
   iso        0.796033D+01      0.117960D+01      0.131248D+01
   aniso      0.649509D+01      0.962473D+00      0.107090D+01
   xx         0.103358D+02      0.153160D+01      0.170414D+01
   yx        -0.263382D+01     -0.390291D+00     -0.434258D+00
   yy         0.847352D+01      0.125565D+01      0.139709D+01
   zx         0.000000D+00      0.000000D+00      0.000000D+00
   zy         0.000000D+00      0.000000D+00      0.000000D+00
   zz         0.507172D+01      0.751551D+00      0.836213D+00

 ----------------------------------------------------------------------

 Dipole orientation:
     6          0.19739172         -0.13958064          0.06948920
     1          1.73095230         -1.22399985          0.87623328
     1         -1.33616886          0.94483856          0.87623328

 Electric dipole moment (dipole orientation):
 (Debye = 10**-18 statcoulomb cm , SI units = C m)
                  (au)            (Debye)         (10**-30 SI)
   Tot        0.246296D+00      0.626021D+00      0.208818D+01
   x          0.000000D+00      0.000000D+00      0.000000D+00
   y          0.000000D+00      0.000000D+00      0.000000D+00
   z          0.246296D+00      0.626021D+00      0.208818D+01

 Dipole polarizability, Alpha (dipole orientation).
 (esu units = cm**3 , SI units = C**2 m**2 J**-1)
 Alpha(0;0):
               (au)            (10**-24 esu)      (10**-40 SI)
   iso        0.796033D+01      0.117960D+01      0.131248D+01
   aniso      0.649509D+01      0.962473D+00      0.107090D+01
   xx         0.982262D+01      0.145556D+01      0.161953D+01
   yx        -0.335949D+01     -0.497825D+00     -0.553905D+00
   yy         0.744729D+01      0.110358D+01      0.122789D+01
   zx         0.000000D+00      0.000000D+00      0.000000D+00
   zy         0.000000D+00      0.000000D+00      0.000000D+00
   zz         0.661108D+01      0.979661D+00      0.109002D+01

 ----------------------------------------------------------------------

 This type of calculation cannot be archived.


 WHAT, THEN, IS TIME?  IF NO ONE ASKS ME, I KNOW WHAT IT IS.
 IF I WISH TO EXPLAIN WHAT IT IS TO HIM WHO ASKS ME, I DO NOT KNOW.
                                   -- ST. AUGUSTINE (FIFTH CENTURY)
 Job cpu time:       0 days  0 hours  0 minutes  0.4 seconds.
 Elapsed time:       0 days  0 hours  0 minutes  0.4 seconds.
 File lengths (MBytes):  RWF=      6 Int=      0 D2E=      0 Chk=      1 Scr=      1
 Normal termination of Gaussian 16 at Tue May  3 08:41:43 2022.
