 Entering Gaussian System, Link 0=g16
 Initial command:
 /software//g16/l1.exe "/home/tmp/g16/Gau-3151444.inp" -scrdir="/home/tmp/g16/"
 Entering Link 1 = /software//g16/l1.exe PID=   3151445.
  
 Copyright (c) 1988-2019, Gaussian, Inc.  All Rights Reserved.
  
 This is part of the Gaussian(R) 16 program.  It is based on
 the Gaussian(R) 09 system (copyright 2009, Gaussian, Inc.),
 the Gaussian(R) 03 system (copyright 2003, Gaussian, Inc.),
 the Gaussian(R) 98 system (copyright 1998, Gaussian, Inc.),
 the Gaussian(R) 94 system (copyright 1995, Gaussian, Inc.),
 the Gaussian 92(TM) system (copyright 1992, Gaussian, Inc.),
 the Gaussian 90(TM) system (copyright 1990, Gaussian, Inc.),
 the Gaussian 88(TM) system (copyright 1988, Gaussian, Inc.),
 the Gaussian 86(TM) system (copyright 1986, Carnegie Mellon
 University), and the Gaussian 82(TM) system (copyright 1983,
 Carnegie Mellon University). Gaussian is a federally registered
 trademark of Gaussian, Inc.
  
 This software contains proprietary and confidential information,
 including trade secrets, belonging to Gaussian, Inc.
  
 This software is provided under written license and may be
 used, copied, transmitted, or stored only in accord with that
 written license.
  
 The following legend is applicable only to US Government
 contracts under FAR:
  
                    RESTRICTED RIGHTS LEGEND
  
 Use, reproduction and disclosure by the US Government is
 subject to restrictions as set forth in subparagraphs (a)
 and (c) of the Commercial Computer Software - Restricted
 Rights clause in FAR 52.227-19.
  
 Gaussian, Inc.
 340 Quinnipiac St., Bldg. 40, Wallingford CT 06492
  
  
 ---------------------------------------------------------------
 Warning -- This program may not be used in any manner that
 competes with the business of Gaussian, Inc. or will provide
 assistance to any competitor of Gaussian, Inc.  The licensee
 of this program is prohibited from giving any competitor of
 Gaussian, Inc. access to this program.  By using this program,
 the user acknowledges that Gaussian, Inc. is engaged in the
 business of creating and licensing software in the field of
 computational chemistry and represents and warrants to the
 licensee that it is not a competitor of Gaussian, Inc. and that
 it will not use this program in any manner prohibited above.
 ---------------------------------------------------------------
  

 Cite this work as:
 Gaussian 16, Revision C.01,
 M. J. Frisch, G. W. Trucks, H. B. Schlegel, G. E. Scuseria, 
 M. A. Robb, J. R. Cheeseman, G. Scalmani, V. Barone, 
 G. A. Petersson, H. Nakatsuji, X. Li, M. Caricato, A. V. Marenich, 
 J. Bloino, B. G. Janesko, R. Gomperts, B. Mennucci, H. P. Hratchian, 
 J. V. Ortiz, A. F. Izmaylov, J. L. Sonnenberg, D. Williams-Young, 
 F. Ding, F. Lipparini, F. Egidi, J. Goings, B. Peng, A. Petrone, 
 T. Henderson, D. Ranasinghe, V. G. Zakrzewski, J. Gao, N. Rega, 
 G. Zheng, W. Liang, M. Hada, M. Ehara, K. Toyota, R. Fukuda, 
 J. Hasegawa, M. Ishida, T. Nakajima, Y. Honda, O. Kitao, H. Nakai, 
 T. Vreven, K. Throssell, J. A. Montgomery, Jr., J. E. Peralta, 
 F. Ogliaro, M. J. Bearpark, J. J. Heyd, E. N. Brothers, K. N. Kudin, 
 V. N. Staroverov, T. A. Keith, R. Kobayashi, J. Normand, 
 K. Raghavachari, A. P. Rendell, J. C. Burant, S. S. Iyengar, 
 J. Tomasi, M. Cossi, J. M. Millam, M. Klene, C. Adamo, R. Cammi, 
 J. W. Ochterski, R. L. Martin, K. Morokuma, O. Farkas, 
 J. B. Foresman, and D. J. Fox, Gaussian, Inc., Wallingford CT, 2019.
 
 ******************************************
 Gaussian 16:  ES64L-G16RevC.01  3-Jul-2019
                30-Apr-2022 
 ******************************************
 %nprocshared=8
 Will use up to    8 processors via shared memory.
 %chk=C=C(C)CC.chk
 ----------------------------------------------------------------------
 # opt freq=hinderedrotor B3LYP/6-31g(d,p) scf=fermi symm=veryloose pre
 ss=0.987
 ----------------------------------------------------------------------
 1/18=20,19=15,26=3,38=1,113=-987000/1,3;
 2/9=110,12=2,17=2,18=2,40=1/2;
 3/5=1,6=6,7=101,11=2,25=1,30=1,71=1,74=-5/1,2,3;
 4//1;
 5/5=2,22=13,38=5/2;
 6/7=2,8=2,9=2,10=2,28=1/1;
 7//1,2,3,16;
 1/18=20,19=15,26=3/3(2);
 2/9=110/2;
 99//99;
 2/9=110/2;
 3/5=1,6=6,7=101,11=2,25=1,30=1,71=1,74=-5/1,2,3;
 4/5=5,16=3,69=1/1;
 5/5=2,22=13,38=5/2;
 7//1,2,3,16;
 1/18=20,19=15,26=3/3(-5);
 2/9=110/2;
 6/7=2,8=2,9=2,10=2,19=2,28=1/1;
 99/9=1/99;
 ----------
 C=C(C)CC_1
 ----------
 Symbolic Z-matrix:
 Charge =  0 Multiplicity = 1
 C                    -1.0426   -1.3063    0. 
 C                     0.1153   -0.6378    0. 
 C                     1.4117   -1.3863    0. 
 C                     0.1153    0.8592    0. 
 C                    -1.3204    1.3676    0. 
 H                    -1.9952   -0.7563    0. 
 H                    -1.0426   -2.4063    0. 
 H                     1.2089   -2.4806    0. 
 H                     1.9946   -1.1175   -0.9093 
 H                     1.9952   -1.1173    0.9088 
 H                     0.6395    1.2297    0.9093 
 H                     0.64      1.2301   -0.9088 
 H                    -1.3204    2.4806    0. 
 H                    -1.8446    0.9972   -0.9093 
 H                    -1.8451    0.9968    0.9088 
 

 GradGradGradGradGradGradGradGradGradGradGradGradGradGradGradGradGradGrad
 Berny optimization.
 Initialization pass.
                           ----------------------------
                           !    Initial Parameters    !
                           ! (Angstroms and Degrees)  !
 --------------------------                            --------------------------
 ! Name  Definition              Value          Derivative Info.                !
 --------------------------------------------------------------------------------
 ! R1    R(1,2)                  1.337          estimate D2E/DX2                !
 ! R2    R(1,6)                  1.1            estimate D2E/DX2                !
 ! R3    R(1,7)                  1.1            estimate D2E/DX2                !
 ! R4    R(2,3)                  1.497          estimate D2E/DX2                !
 ! R5    R(2,4)                  1.497          estimate D2E/DX2                !
 ! R6    R(3,8)                  1.1129         estimate D2E/DX2                !
 ! R7    R(3,9)                  1.113          estimate D2E/DX2                !
 ! R8    R(3,10)                 1.113          estimate D2E/DX2                !
 ! R9    R(4,5)                  1.5231         estimate D2E/DX2                !
 ! R10   R(4,11)                 1.1131         estimate D2E/DX2                !
 ! R11   R(4,12)                 1.113          estimate D2E/DX2                !
 ! R12   R(5,13)                 1.113          estimate D2E/DX2                !
 ! R13   R(5,14)                 1.113          estimate D2E/DX2                !
 ! R14   R(5,15)                 1.113          estimate D2E/DX2                !
 ! A1    A(2,1,6)              119.9998         estimate D2E/DX2                !
 ! A2    A(2,1,7)              119.9995         estimate D2E/DX2                !
 ! A3    A(6,1,7)              120.0007         estimate D2E/DX2                !
 ! A4    A(1,2,3)              119.9997         estimate D2E/DX2                !
 ! A5    A(1,2,4)              119.9995         estimate D2E/DX2                !
 ! A6    A(3,2,4)              120.0008         estimate D2E/DX2                !
 ! A7    A(2,3,8)              109.5016         estimate D2E/DX2                !
 ! A8    A(2,3,9)              109.4377         estimate D2E/DX2                !
 ! A9    A(2,3,10)             109.4615         estimate D2E/DX2                !
 ! A10   A(8,3,9)              109.4441         estimate D2E/DX2                !
 ! A11   A(8,3,10)             109.4617         estimate D2E/DX2                !
 ! A12   A(9,3,10)             109.5207         estimate D2E/DX2                !
 ! A13   A(2,4,5)              109.4997         estimate D2E/DX2                !
 ! A14   A(2,4,11)             109.443          estimate D2E/DX2                !
 ! A15   A(2,4,12)             109.4656         estimate D2E/DX2                !
 ! A16   A(5,4,11)             109.4408         estimate D2E/DX2                !
 ! A17   A(5,4,12)             109.46           estimate D2E/DX2                !
 ! A18   A(11,4,12)            109.5183         estimate D2E/DX2                !
 ! A19   A(4,5,13)             109.4997         estimate D2E/DX2                !
 ! A20   A(4,5,14)             109.4432         estimate D2E/DX2                !
 ! A21   A(4,5,15)             109.4624         estimate D2E/DX2                !
 ! A22   A(13,5,14)            109.4381         estimate D2E/DX2                !
 ! A23   A(13,5,15)            109.4607         estimate D2E/DX2                !
 ! A24   A(14,5,15)            109.5232         estimate D2E/DX2                !
 ! D1    D(6,1,2,3)            180.0            estimate D2E/DX2                !
 ! D2    D(6,1,2,4)              0.0            estimate D2E/DX2                !
 ! D3    D(7,1,2,3)              0.0            estimate D2E/DX2                !
 ! D4    D(7,1,2,4)            180.0            estimate D2E/DX2                !
 ! D5    D(1,2,3,8)              0.0            estimate D2E/DX2                !
 ! D6    D(1,2,3,9)            119.9649         estimate D2E/DX2                !
 ! D7    D(1,2,3,10)          -120.0009         estimate D2E/DX2                !
 ! D8    D(4,2,3,8)            180.0            estimate D2E/DX2                !
 ! D9    D(4,2,3,9)            -60.0351         estimate D2E/DX2                !
 ! D10   D(4,2,3,10)            59.9991         estimate D2E/DX2                !
 ! D11   D(1,2,4,5)              0.0            estimate D2E/DX2                !
 ! D12   D(1,2,4,11)           119.9629         estimate D2E/DX2                !
 ! D13   D(1,2,4,12)          -120.0002         estimate D2E/DX2                !
 ! D14   D(3,2,4,5)            180.0            estimate D2E/DX2                !
 ! D15   D(3,2,4,11)           -60.0371         estimate D2E/DX2                !
 ! D16   D(3,2,4,12)            59.9998         estimate D2E/DX2                !
 ! D17   D(2,4,5,13)           180.0            estimate D2E/DX2                !
 ! D18   D(2,4,5,14)           -60.0402         estimate D2E/DX2                !
 ! D19   D(2,4,5,15)            60.0008         estimate D2E/DX2                !
 ! D20   D(11,4,5,13)           60.0358         estimate D2E/DX2                !
 ! D21   D(11,4,5,14)          179.9955         estimate D2E/DX2                !
 ! D22   D(11,4,5,15)          -59.9634         estimate D2E/DX2                !
 ! D23   D(12,4,5,13)          -59.9964         estimate D2E/DX2                !
 ! D24   D(12,4,5,14)           59.9634         estimate D2E/DX2                !
 ! D25   D(12,4,5,15)         -179.9955         estimate D2E/DX2                !
 --------------------------------------------------------------------------------
 Trust Radius=3.00D-01 FncErr=1.00D-07 GrdErr=1.00D-06 EigMax=2.50D+02 EigMin=1.00D-04
 Number of steps in this run=     73 maximum allowed number of steps=    100.
 GradGradGradGradGradGradGradGradGradGradGradGradGradGradGradGradGradGrad

                          Input orientation:                          
 ---------------------------------------------------------------------
 Center     Atomic      Atomic             Coordinates (Angstroms)
 Number     Number       Type             X           Y           Z
 ---------------------------------------------------------------------
      1          6           0       -1.042600   -1.306300    0.000000
      2          6           0        0.115300   -0.637800    0.000000
      3          6           0        1.411700   -1.386300    0.000000
      4          6           0        0.115300    0.859200    0.000000
      5          6           0       -1.320400    1.367600    0.000000
      6          1           0       -1.995200   -0.756300    0.000000
      7          1           0       -1.042600   -2.406300    0.000000
      8          1           0        1.208900   -2.480600    0.000000
      9          1           0        1.994600   -1.117500   -0.909300
     10          1           0        1.995200   -1.117300    0.908800
     11          1           0        0.639500    1.229700    0.909300
     12          1           0        0.640000    1.230100   -0.908800
     13          1           0       -1.320400    2.480600    0.000000
     14          1           0       -1.844600    0.997200   -0.909300
     15          1           0       -1.845100    0.996800    0.908800
 ---------------------------------------------------------------------
                    Distance matrix (angstroms):
                    1          2          3          4          5
     1  C    0.000000
     2  C    1.337021   0.000000
     3  C    2.455603   1.496965   0.000000
     4  C    2.455631   1.497000   2.592860   0.000000
     5  C    2.688292   2.466346   3.879218   1.523058   0.000000
     6  H    1.099976   2.113824   3.464660   2.657828   2.228521
     7  H    1.100000   2.113841   2.657816   3.464711   3.784111
     8  H    2.539337   2.142866   1.112933   3.514289   4.604997
     9  H    3.176013   2.142127   1.113037   2.875054   4.241671
    10  H    3.176455   2.142396   1.112992   2.875151   4.241916
    11  H    3.176096   2.142234   2.875165   1.113051   2.164960
    12  H    3.176537   2.142493   2.875237   1.113011   2.165177
    13  H    3.797076   3.433024   4.734690   2.165681   1.113000
    14  H    2.603103   2.709476   4.136591   2.164966   1.113018
    15  H    2.602728   2.709428   4.136645   2.165183   1.112978
                    6          7          8          9         10
     6  H    0.000000
     7  H    1.905242   0.000000
     8  H    3.638608   2.252726   0.000000
     9  H    4.108016   3.422341   1.817194   0.000000
    10  H    4.108471   3.422816   1.817353   1.818100   0.000000
    11  H    3.422377   4.108136   3.862301   3.263886   2.710412
    12  H    3.422862   4.108584   3.862494   2.710381   3.263514
    13  H    3.306490   4.894790   5.568740   4.976181   4.976345
    14  H    1.980977   3.613010   4.716543   4.383083   4.745594
    15  H    1.980355   3.612619   4.716476   4.745424   4.383757
                   11         12         13         14         15
    11  H    0.000000
    12  H    1.818100   0.000000
    13  H    2.496555   2.496565   0.000000
    14  H    3.087412   2.495492   1.817165   0.000000
    15  H    2.495492   3.087689   1.817385   1.818100   0.000000
 Stoichiometry    C5H10
 Framework group  CS[SG(C5H4),X(H6)]
 Deg. of freedom    24
 Full point group                 CS      NOp   2
 Largest Abelian subgroup         CS      NOp   2
 Largest concise Abelian subgroup CS      NOp   2
                         Standard orientation:                         
 ---------------------------------------------------------------------
 Center     Atomic      Atomic             Coordinates (Angstroms)
 Number     Number       Type             X           Y           Z
 ---------------------------------------------------------------------
      1          6           0        1.336997    0.511846    0.000000
      2          6           0        0.000000    0.519893    0.000000
      3          6           0       -0.740661    1.820787    0.000000
      4          6           0       -0.756278   -0.772026    0.000000
      5          6           0        0.225897   -1.936087    0.000000
      6          1           0        1.881238   -0.444056    0.000000
      7          1           0        1.892712    1.461151    0.000000
      8          1           0       -0.012808    2.662720    0.000000
      9          1           0       -1.379503    1.883290   -0.909288
     10          1           0       -1.379503    1.883290    0.909288
     11          1           0       -1.395840   -0.826945    0.909313
     12          1           0       -1.395840   -0.826945   -0.909313
     13          1           0       -0.336386   -2.896611    0.000000
     14          1           0        0.865409   -1.881253   -0.909288
     15          1           0        0.865409   -1.881253    0.909288
 ---------------------------------------------------------------------
 Rotational constants (GHZ):           9.0323164           3.6615071           2.7469578
 Standard basis: 6-31G(d,p) (6D, 7F)
 There are    86 symmetry adapted cartesian basis functions of A'  symmetry.
 There are    39 symmetry adapted cartesian basis functions of A"  symmetry.
 There are    86 symmetry adapted basis functions of A'  symmetry.
 There are    39 symmetry adapted basis functions of A"  symmetry.
   125 basis functions,   210 primitive gaussians,   125 cartesian basis functions
    20 alpha electrons       20 beta electrons
       nuclear repulsion energy       177.2269382304 Hartrees.
 NAtoms=   15 NActive=   15 NUniq=   12 SFac= 1.56D+00 NAtFMM=   60 NAOKFM=F Big=F
 Integral buffers will be    131072 words long.
 Raffenetti 2 integral format.
 Two-electron integral symmetry is turned on.
 One-electron integrals computed using PRISM.
 NBasis=   125 RedAO= T EigKep=  2.77D-03  NBF=    86    39
 NBsUse=   125 1.00D-06 EigRej= -1.00D+00 NBFU=    86    39
 ExpMin= 1.61D-01 ExpMax= 3.05D+03 ExpMxC= 4.57D+02 IAcc=3 IRadAn=         5 AccDes= 0.00D+00
 Harris functional with IExCor=  402 and IRadAn=       5 diagonalized for initial guess.
 HarFok:  IExCor=  402 AccDes= 0.00D+00 IRadAn=         5 IDoV= 1 UseB2=F ITyADJ=14
 ICtDFT=  3500011 ScaDFX=  1.000000  1.000000  1.000000  1.000000
 FoFCou: FMM=F IPFlag=           0 FMFlag=      100000 FMFlg1=           0
         NFxFlg=           0 DoJE=T BraDBF=F KetDBF=T FulRan=T
         wScrn=  0.000000 ICntrl=       500 IOpCl=  0 I1Cent=   200000004 NGrid=           0
         NMat0=    1 NMatS0=      1 NMatT0=    0 NMatD0=    1 NMtDS0=    0 NMtDT0=    0
 Petite list used in FoFCou.
 Initial guess orbital symmetries:
       Occupied  (A') (A') (A') (A') (A') (A') (A') (A') (A') (A')
                 (A') (A") (A') (A") (A') (A') (A') (A") (A') (A")
       Virtual   (A") (A') (A') (A') (A') (A") (A') (A') (A") (A")
                 (A') (A') (A') (A') (A') (A') (A') (A") (A') (A")
                 (A') (A') (A") (A") (A') (A') (A') (A") (A') (A')
                 (A") (A') (A') (A") (A') (A') (A") (A') (A') (A')
                 (A') (A') (A") (A') (A") (A') (A") (A') (A') (A")
                 (A") (A') (A') (A') (A') (A") (A') (A') (A") (A')
                 (A") (A") (A") (A') (A") (A') (A") (A') (A') (A")
                 (A') (A") (A') (A") (A') (A') (A") (A") (A') (A')
                 (A') (A') (A") (A') (A') (A") (A") (A') (A') (A')
                 (A') (A') (A') (A") (A') (A") (A') (A') (A") (A')
                 (A') (A') (A') (A') (A')
 The electronic state of the initial guess is 1-A'.
 Keep R1 ints in memory in symmetry-blocked form, NReq=46878990.
 Requested convergence on RMS density matrix=1.00D-08 within 128 cycles.
 Requested convergence on MAX density matrix=1.00D-06.
 Requested convergence on             energy=1.00D-06.
 Level shift goal  0.100 maximum shift  0.100.
 No special actions if energy rises.
 Dynamic level shift is on during FON iterations.
 Integral accuracy reduced to 1.0D-05 until final iterations.
 Initial convergence to 1.0D-05 achieved.  Increase integral accuracy.
 SCF Done:  E(RB3LYP) =  -196.543652080     A.U. after   13 cycles
            NFock= 13  Conv=0.23D-08     -V/T= 2.0106

 **********************************************************************

            Population analysis using the SCF Density.

 **********************************************************************

 Orbital symmetries:
       Occupied  (A') (A') (A') (A') (A') (A') (A') (A') (A') (A')
                 (A') (A") (A') (A") (A') (A') (A") (A') (A') (A")
       Virtual   (A") (A') (A') (A') (A') (A") (A') (A") (A') (A")
                 (A') (A') (A') (A') (A') (A') (A") (A') (A") (A')
                 (A') (A') (A") (A") (A') (A') (A') (A") (A') (A')
                 (A") (A') (A") (A') (A') (A') (A") (A') (A') (A')
                 (A') (A') (A') (A") (A") (A') (A") (A') (A') (A")
                 (A") (A') (A') (A') (A") (A') (A') (A') (A") (A')
                 (A") (A") (A") (A') (A") (A') (A") (A') (A') (A")
                 (A') (A") (A') (A") (A') (A') (A") (A") (A') (A')
                 (A') (A') (A") (A') (A') (A") (A") (A') (A') (A')
                 (A') (A') (A') (A") (A') (A") (A') (A') (A") (A')
                 (A') (A') (A') (A') (A')
 The electronic state is 1-A'.
 Alpha  occ. eigenvalues --  -10.18597 -10.18405 -10.18130 -10.17677 -10.16275
 Alpha  occ. eigenvalues --   -0.81448  -0.73161  -0.66984  -0.62149  -0.50292
 Alpha  occ. eigenvalues --   -0.46613  -0.45357  -0.42107  -0.40421  -0.38029
 Alpha  occ. eigenvalues --   -0.35998  -0.34627  -0.33272  -0.32429  -0.23821
 Alpha virt. eigenvalues --    0.03213   0.09494   0.12170   0.13635   0.14574
 Alpha virt. eigenvalues --    0.15514   0.16574   0.18028   0.19258   0.19316
 Alpha virt. eigenvalues --    0.21430   0.24379   0.25360   0.31305   0.37891
 Alpha virt. eigenvalues --    0.48958   0.54001   0.54294   0.55617   0.57066
 Alpha virt. eigenvalues --    0.60201   0.63308   0.63832   0.67746   0.68434
 Alpha virt. eigenvalues --    0.70714   0.76012   0.78569   0.80977   0.82504
 Alpha virt. eigenvalues --    0.83981   0.84952   0.87997   0.88423   0.88788
 Alpha virt. eigenvalues --    0.91139   0.92437   0.93429   0.95633   1.04435
 Alpha virt. eigenvalues --    1.15134   1.19030   1.26529   1.29673   1.32381
 Alpha virt. eigenvalues --    1.38223   1.48436   1.57845   1.58922   1.68251
 Alpha virt. eigenvalues --    1.74484   1.77066   1.80756   1.83766   1.86550
 Alpha virt. eigenvalues --    1.87538   1.92480   2.00715   2.02578   2.03330
 Alpha virt. eigenvalues --    2.03399   2.03992   2.04584   2.06734   2.08796
 Alpha virt. eigenvalues --    2.14822   2.17631   2.20748   2.25013   2.26493
 Alpha virt. eigenvalues --    2.33051   2.38239   2.42042   2.46711   2.47077
 Alpha virt. eigenvalues --    2.51422   2.53080   2.59454   2.63269   2.64538
 Alpha virt. eigenvalues --    2.65167   2.70961   2.72606   2.77678   2.82591
 Alpha virt. eigenvalues --    2.84333   2.86724   2.87943   2.96784   3.02670
 Alpha virt. eigenvalues --    3.14990   3.17908   3.26653   3.34673   3.37051
 Alpha virt. eigenvalues --    3.39032   3.44063   3.45785   3.50336   3.56935
 Alpha virt. eigenvalues --    4.18395   4.32766   4.43904   4.54843   4.71834
          Condensed to atoms (all electrons):
               1          2          3          4          5          6
     1  C    4.973962   0.703255  -0.051785  -0.059597  -0.017568   0.372758
     2  C    0.703255   4.644214   0.381627   0.392541  -0.047806  -0.030702
     3  C   -0.051785   0.381627   4.996274  -0.072211   0.004918   0.007158
     4  C   -0.059597   0.392541  -0.072211   4.958306   0.360992  -0.023587
     5  C   -0.017568  -0.047806   0.004918   0.360992   4.950725   0.005822
     6  H    0.372758  -0.030702   0.007158  -0.023587   0.005822   0.621663
     7  H    0.363230  -0.026865  -0.015274   0.008183  -0.000101  -0.041478
     8  H   -0.008825  -0.027081   0.371038   0.004874  -0.000221   0.000023
     9  H   -0.000126  -0.035905   0.370241  -0.001857   0.000047  -0.000250
    10  H   -0.000126  -0.035905   0.370241  -0.001857   0.000047  -0.000250
    11  H    0.000059  -0.037214  -0.002311   0.371359  -0.034780   0.000359
    12  H    0.000059  -0.037214  -0.002311   0.371359  -0.034780   0.000359
    13  H    0.001279   0.004606  -0.000156  -0.030362   0.369497   0.000134
    14  H   -0.001125  -0.005515   0.000005  -0.033825   0.386999  -0.000178
    15  H   -0.001125  -0.005515   0.000005  -0.033825   0.386999  -0.000178
               7          8          9         10         11         12
     1  C    0.363230  -0.008825  -0.000126  -0.000126   0.000059   0.000059
     2  C   -0.026865  -0.027081  -0.035905  -0.035905  -0.037214  -0.037214
     3  C   -0.015274   0.371038   0.370241   0.370241  -0.002311  -0.002311
     4  C    0.008183   0.004874  -0.001857  -0.001857   0.371359   0.371359
     5  C   -0.000101  -0.000221   0.000047   0.000047  -0.034780  -0.034780
     6  H   -0.041478   0.000023  -0.000250  -0.000250   0.000359   0.000359
     7  H    0.628948   0.007763   0.000265   0.000265  -0.000190  -0.000190
     8  H    0.007763   0.601363  -0.027379  -0.027379  -0.000075  -0.000075
     9  H    0.000265  -0.027379   0.616735  -0.033617  -0.000623   0.004250
    10  H    0.000265  -0.027379  -0.033617   0.616735   0.004250  -0.000623
    11  H   -0.000190  -0.000075  -0.000623   0.004250   0.636860  -0.036341
    12  H   -0.000190  -0.000075   0.004250  -0.000623  -0.036341   0.636860
    13  H   -0.000021   0.000003  -0.000001  -0.000001  -0.003171  -0.003171
    14  H    0.000144  -0.000000  -0.000024   0.000017   0.005695  -0.006470
    15  H    0.000144  -0.000000   0.000017  -0.000024  -0.006470   0.005695
              13         14         15
     1  C    0.001279  -0.001125  -0.001125
     2  C    0.004606  -0.005515  -0.005515
     3  C   -0.000156   0.000005   0.000005
     4  C   -0.030362  -0.033825  -0.033825
     5  C    0.369497   0.386999   0.386999
     6  H    0.000134  -0.000178  -0.000178
     7  H   -0.000021   0.000144   0.000144
     8  H    0.000003  -0.000000  -0.000000
     9  H   -0.000001  -0.000024   0.000017
    10  H   -0.000001   0.000017  -0.000024
    11  H   -0.003171   0.005695  -0.006470
    12  H   -0.003171  -0.006470   0.005695
    13  H    0.628635  -0.028385  -0.028385
    14  H   -0.028385   0.604552  -0.036365
    15  H   -0.028385  -0.036365   0.604552
 Mulliken charges:
               1
     1  C   -0.274326
     2  C    0.163481
     3  C   -0.357458
     4  C   -0.210495
     5  C   -0.330790
     6  H    0.088349
     7  H    0.075179
     8  H    0.105969
     9  H    0.108227
    10  H    0.108227
    11  H    0.102593
    12  H    0.102593
    13  H    0.089500
    14  H    0.114476
    15  H    0.114476
 Sum of Mulliken charges =  -0.00000
 Mulliken charges with hydrogens summed into heavy atoms:
               1
     1  C   -0.110798
     2  C    0.163481
     3  C   -0.035035
     4  C   -0.005308
     5  C   -0.012339
 Electronic spatial extent (au):  <R**2>=            508.5818
 Charge=             -0.0000 electrons
 Dipole moment (field-independent basis, Debye):
    X=             -0.5135    Y=             -0.0642    Z=              0.0000  Tot=              0.5175
 Quadrupole moment (field-independent basis, Debye-Ang):
   XX=            -33.0007   YY=            -32.8860   ZZ=            -33.8392
   XY=              0.0742   XZ=              0.0000   YZ=              0.0000
 Traceless Quadrupole moment (field-independent basis, Debye-Ang):
   XX=              0.2413   YY=              0.3559   ZZ=             -0.5972
   XY=              0.0742   XZ=              0.0000   YZ=              0.0000
 Octapole moment (field-independent basis, Debye-Ang**2):
  XXX=              0.0907  YYY=              2.4997  ZZZ=              0.0000  XYY=              0.9589
  XXY=             -0.1378  XXZ=             -0.0000  XZZ=             -2.5001  YZZ=             -0.9162
  YYZ=             -0.0000  XYZ=              0.0000
 Hexadecapole moment (field-independent basis, Debye-Ang**3):
 XXXX=           -205.0652 YYYY=           -447.3472 ZZZZ=            -56.9352 XXXY=             16.1937
 XXXZ=              0.0000 YYYX=             25.7825 YYYZ=             -0.0000 ZZZX=             -0.0000
 ZZZY=             -0.0000 XXYY=           -106.2205 XXZZ=            -42.5631 YYZZ=            -84.2153
 XXYZ=             -0.0000 YYXZ=              0.0000 ZZXY=              2.8146
 N-N= 1.772269382304D+02 E-N=-8.081554723017D+02  KE= 1.944725673686D+02
 Symmetry A'   KE= 1.865734633334D+02
 Symmetry A"   KE= 7.899104035255D+00
 Calling FoFJK, ICntrl=      2127 FMM=F ISym2X=1 I1Cent= 0 IOpClX= 0 NMat=1 NMatS=1 NMatT=0.
 ***** Axes restored to original set *****
 -------------------------------------------------------------------
 Center     Atomic                   Forces (Hartrees/Bohr)
 Number     Number              X              Y              Z
 -------------------------------------------------------------------
      1        6          -0.006652432   -0.007813895    0.000000000
      2        6          -0.006284130   -0.012749307   -0.000000000
      3        6           0.005595144   -0.002458885   -0.000000000
      4        6          -0.000466937    0.002663605   -0.000000000
      5        6          -0.004089135    0.020268966    0.000000000
      6        1           0.008103208   -0.017590827    0.000000000
      7        1          -0.004214773    0.009455719    0.000000000
      8        1           0.006926335    0.011898852   -0.000000000
      9        1          -0.000235478   -0.004173688    0.010481281
     10        1          -0.000235478   -0.004173688   -0.010481281
     11        1           0.000220572   -0.000719951   -0.010472032
     12        1           0.000220572   -0.000719951    0.010472032
     13        1          -0.004268119   -0.011240772   -0.000000000
     14        1           0.002690325    0.008676910    0.011183071
     15        1           0.002690325    0.008676910   -0.011183071
 -------------------------------------------------------------------
 Cartesian Forces:  Max     0.020268966 RMS     0.007433060

 GradGradGradGradGradGradGradGradGradGradGradGradGradGradGradGradGradGrad
 Berny optimization.
 FormGI is forming the generalized inverse of G from B-inverse, IUseBI=4.
 Internal  Forces:  Max     0.051003631 RMS     0.012026329
 Search for a local minimum.
 Step number   1 out of a maximum of   73
 All quantities printed in internal units (Hartrees-Bohrs-Radians)
 Mixed Optimization -- RFO/linear search
 Second derivative matrix not updated -- first step.
 ITU=  0
     Eigenvalues ---    0.00461   0.00806   0.00806   0.01335   0.02922
     Eigenvalues ---    0.02922   0.04618   0.05623   0.05867   0.05868
     Eigenvalues ---    0.07560   0.07562   0.08898   0.12479   0.16000
     Eigenvalues ---    0.16000   0.16000   0.16000   0.16000   0.16000
     Eigenvalues ---    0.16000   0.16000   0.21991   0.25000   0.25000
     Eigenvalues ---    0.30074   0.32278   0.32278   0.32282   0.32282
     Eigenvalues ---    0.32284   0.32284   0.32284   0.32291   0.32694
     Eigenvalues ---    0.32698   0.33682   0.33685   0.57878
 RFO step:  Lambda=-3.48945457D-02 EMin= 4.60937089D-03
 Linear search not attempted -- first point.
 Maximum step size (   0.300) exceeded in Quadratic search.
    -- Step size scaled by   0.861
 Iteration  1 RMS(Cart)=  0.19504762 RMS(Int)=  0.01043674
 Iteration  2 RMS(Cart)=  0.01625333 RMS(Int)=  0.00069723
 Iteration  3 RMS(Cart)=  0.00013209 RMS(Int)=  0.00069477
 Iteration  4 RMS(Cart)=  0.00000002 RMS(Int)=  0.00069477
 ClnCor:  largest displacement from symmetrization is 5.04D-10 for atom     6.
 Variable       Old X    -DE/DX   Delta X   Delta X   Delta X     New X
                                 (Linear)    (Quad)   (Total)
    R1        2.52660   0.01037   0.00000   0.01455   0.01455   2.54115
    R2        2.07865  -0.01581   0.00000  -0.03662  -0.03662   2.04203
    R3        2.07870  -0.00946   0.00000  -0.02190  -0.02190   2.05680
    R4        2.82885   0.00989   0.00000   0.02353   0.02353   2.85238
    R5        2.82892   0.02761   0.00000   0.06569   0.06569   2.89461
    R6        2.10314  -0.01296   0.00000  -0.03119  -0.03119   2.07195
    R7        2.10332  -0.00969   0.00000  -0.02333  -0.02333   2.07998
    R8        2.10332  -0.00969   0.00000  -0.02333  -0.02333   2.07998
    R9        2.87816   0.01161   0.00000   0.02979   0.02979   2.90795
   R10        2.10338  -0.00869   0.00000  -0.02092  -0.02092   2.08246
   R11        2.10338  -0.00869   0.00000  -0.02092  -0.02092   2.08246
   R12        2.10327  -0.01124   0.00000  -0.02705  -0.02705   2.07621
   R13        2.10328  -0.01329   0.00000  -0.03199  -0.03199   2.07129
   R14        2.10328  -0.01329   0.00000  -0.03199  -0.03199   2.07129
    A1        2.09439   0.01258   0.00000   0.05555   0.05555   2.14994
    A2        2.09439  -0.00191   0.00000  -0.00842  -0.00842   2.08596
    A3        2.09441  -0.01067   0.00000  -0.04713  -0.04713   2.04728
    A4        2.09439  -0.00845   0.00000  -0.02555  -0.02555   2.06884
    A5        2.09439   0.03743   0.00000   0.11312   0.11312   2.20751
    A6        2.09441  -0.02898   0.00000  -0.08757  -0.08757   2.00683
    A7        1.91116   0.00518   0.00000   0.02500   0.02462   1.93578
    A8        1.91005   0.00555   0.00000   0.02347   0.02320   1.93325
    A9        1.91005   0.00555   0.00000   0.02347   0.02320   1.93325
   A10        1.91016  -0.00458   0.00000  -0.01815  -0.01851   1.89165
   A11        1.91016  -0.00458   0.00000  -0.01815  -0.01851   1.89165
   A12        1.91220  -0.00711   0.00000  -0.03561  -0.03576   1.87645
   A13        1.91113   0.05100   0.00000   0.18844   0.18697   2.09810
   A14        1.91014  -0.01494   0.00000  -0.04141  -0.04362   1.86652
   A15        1.91014  -0.01494   0.00000  -0.04141  -0.04362   1.86652
   A16        1.91010  -0.01201   0.00000  -0.03080  -0.03213   1.87796
   A17        1.91010  -0.01201   0.00000  -0.03080  -0.03213   1.87796
   A18        1.91220   0.00296   0.00000  -0.04381  -0.04697   1.86522
   A19        1.91113   0.00343   0.00000   0.01172   0.01164   1.92277
   A20        1.91015   0.00587   0.00000   0.02763   0.02723   1.93738
   A21        1.91015   0.00587   0.00000   0.02763   0.02723   1.93738
   A22        1.91006  -0.00555   0.00000  -0.02796  -0.02804   1.88202
   A23        1.91006  -0.00555   0.00000  -0.02796  -0.02804   1.88202
   A24        1.91225  -0.00406   0.00000  -0.01106  -0.01173   1.90053
    D1        3.14159  -0.00000   0.00000  -0.00000   0.00000   3.14159
    D2        0.00000  -0.00000   0.00000  -0.00000   0.00000   0.00000
    D3        0.00000   0.00000   0.00000   0.00000   0.00000   0.00000
    D4        3.14159   0.00000   0.00000   0.00000   0.00000   3.14159
    D5        0.00000  -0.00000   0.00000  -0.00000   0.00000   0.00000
    D6        2.09379   0.00095   0.00000   0.00743   0.00752   2.10131
    D7       -2.09379  -0.00095   0.00000  -0.00743  -0.00752  -2.10131
    D8        3.14159  -0.00000   0.00000  -0.00000   0.00000   3.14159
    D9       -1.04780   0.00095   0.00000   0.00743   0.00752  -1.04029
   D10        1.04780  -0.00095   0.00000  -0.00743  -0.00752   1.04029
   D11        0.00000  -0.00000   0.00000  -0.00000   0.00000   0.00000
   D12        2.09374   0.00734   0.00000   0.05218   0.05126   2.14500
   D13       -2.09374  -0.00734   0.00000  -0.05218  -0.05126  -2.14500
   D14        3.14159  -0.00000   0.00000  -0.00000   0.00000   3.14159
   D15       -1.04785   0.00734   0.00000   0.05218   0.05126  -0.99659
   D16        1.04785  -0.00734   0.00000  -0.05218  -0.05126   0.99659
   D17        3.14159  -0.00000   0.00000  -0.00000   0.00000   3.14159
   D18       -1.04789  -0.00110   0.00000  -0.01015  -0.01030  -1.05820
   D19        1.04789   0.00110   0.00000   0.01015   0.01030   1.05820
   D20        1.04783  -0.00554   0.00000  -0.04568  -0.04570   1.00213
   D21        3.14153  -0.00664   0.00000  -0.05583  -0.05600   3.08552
   D22       -1.04587  -0.00444   0.00000  -0.03553  -0.03540  -1.08127
   D23       -1.04783   0.00554   0.00000   0.04568   0.04570  -1.00213
   D24        1.04587   0.00444   0.00000   0.03553   0.03540   1.08127
   D25       -3.14153   0.00664   0.00000   0.05583   0.05600  -3.08552
         Item               Value     Threshold  Converged?
 Maximum Force            0.051004     0.000450     NO 
 RMS     Force            0.012026     0.000300     NO 
 Maximum Displacement     0.775217     0.001800     NO 
 RMS     Displacement     0.199675     0.001200     NO 
 Predicted change in Energy=-1.909209D-02
 GradGradGradGradGradGradGradGradGradGradGradGradGradGradGradGradGradGrad

                          Input orientation:                          
 ---------------------------------------------------------------------
 Center     Atomic      Atomic             Coordinates (Angstroms)
 Number     Number       Type             X           Y           Z
 ---------------------------------------------------------------------
      1          6           0       -1.043273   -1.536691   -0.000012
      2          6           0        0.033699   -0.731459   -0.000012
      3          6           0        1.405244   -1.361699   -0.000012
      4          6           0        0.025577    0.800278   -0.000012
      5          6           0       -1.308304    1.567563   -0.000012
      6          1           0       -2.058491   -1.166527   -0.000012
      7          1           0       -0.905580   -2.616356   -0.000012
      8          1           0        1.333206   -2.455759   -0.000012
      9          1           0        1.977289   -1.051480   -0.887721
     10          1           0        1.977289   -1.051480    0.887696
     11          1           0        0.596449    1.124463    0.885083
     12          1           0        0.596449    1.124463   -0.885108
     13          1           0       -1.122392    2.650404   -0.000012
     14          1           0       -1.899081    1.328440   -0.891750
     15          1           0       -1.899081    1.328440    0.891725
 ---------------------------------------------------------------------
                    Distance matrix (angstroms):
                    1          2          3          4          5
     1  C    0.000000
     2  C    1.344718   0.000000
     3  C    2.454763   1.509416   0.000000
     4  C    2.569799   1.531759   2.564688   0.000000
     5  C    3.115547   2.662044   3.992984   1.538820   0.000000
     6  H    1.080596   2.136947   3.469229   2.865600   2.835142
     7  H    1.088411   2.105964   2.629463   3.541249   4.203257
     8  H    2.548007   2.159150   1.096429   3.508799   4.812972
     9  H    3.185475   2.160551   1.100681   2.833058   4.294478
    10  H    3.185475   2.160551   1.100681   2.833058   4.294478
    11  H    3.248665   2.131790   2.760172   1.101991   2.146582
    12  H    3.248665   2.131790   2.760172   1.101991   2.146582
    13  H    4.187842   3.574010   4.741931   2.177337   1.098685
    14  H    3.120349   2.962098   4.353230   2.185969   1.096081
    15  H    3.120349   2.962098   4.353230   2.185969   1.096081
                    6          7          8          9         10
     6  H    0.000000
     7  H    1.852352   0.000000
     8  H    3.628461   2.244539   0.000000
     9  H    4.133858   3.398205   1.781816   0.000000
    10  H    4.133858   3.398205   1.781816   1.775418   0.000000
    11  H    3.616730   4.127132   3.760877   3.127985   2.577103
    12  H    3.616730   4.127132   3.760877   2.577103   3.127985
    13  H    3.930044   5.271221   5.665939   4.909175   4.909175
    14  H    2.654330   4.164572   5.055991   4.548657   4.884332
    15  H    2.654330   4.164572   5.055991   4.884332   4.548657
                   11         12         13         14         15
    11  H    0.000000
    12  H    1.770191   0.000000
    13  H    2.462986   2.462986   0.000000
    14  H    3.070246   2.503861   1.773706   0.000000
    15  H    2.503861   3.070246   1.773706   1.783474   0.000000
 Stoichiometry    C5H10
 Framework group  CS[SG(C5H4),X(H6)]
 Deg. of freedom    24
 Full point group                 CS      NOp   2
 Largest Abelian subgroup         CS      NOp   2
 Largest concise Abelian subgroup CS      NOp   2
                         Standard orientation:                         
 ---------------------------------------------------------------------
 Center     Atomic      Atomic             Coordinates (Angstroms)
 Number     Number       Type             X           Y           Z
 ---------------------------------------------------------------------
      1          6           0        1.294786    0.923195    0.000000
      2          6           0        0.000000    0.560158    0.000000
      3          6           0       -1.052287    1.642299    0.000000
      4          6           0       -0.544395   -0.871596    0.000000
      5          6           0        0.423373   -2.068004    0.000000
      6          1           0        2.108405    0.212061    0.000000
      7          1           0        1.555409    1.979942    0.000000
      8          1           0       -0.590837    2.636896    0.000000
      9          1           0       -1.697687    1.559063   -0.887709
     10          1           0       -1.697687    1.559063    0.887709
     11          1           0       -1.193734   -0.968284    0.885096
     12          1           0       -1.193734   -0.968284   -0.885096
     13          1           0       -0.140258   -3.011099    0.000000
     14          1           0        1.060628   -2.057836   -0.891737
     15          1           0        1.060628   -2.057836    0.891737
 ---------------------------------------------------------------------
 Rotational constants (GHZ):           8.5477846           3.3690990           2.5321158
 Standard basis: 6-31G(d,p) (6D, 7F)
 There are    86 symmetry adapted cartesian basis functions of A'  symmetry.
 There are    39 symmetry adapted cartesian basis functions of A"  symmetry.
 There are    86 symmetry adapted basis functions of A'  symmetry.
 There are    39 symmetry adapted basis functions of A"  symmetry.
   125 basis functions,   210 primitive gaussians,   125 cartesian basis functions
    20 alpha electrons       20 beta electrons
       nuclear repulsion energy       173.6049058445 Hartrees.
 NAtoms=   15 NActive=   15 NUniq=   12 SFac= 1.56D+00 NAtFMM=   60 NAOKFM=F Big=F
 Integral buffers will be    131072 words long.
 Raffenetti 2 integral format.
 Two-electron integral symmetry is turned on.
 One-electron integrals computed using PRISM.
 NBasis=   125 RedAO= T EigKep=  3.63D-03  NBF=    86    39
 NBsUse=   125 1.00D-06 EigRej= -1.00D+00 NBFU=    86    39
 Initial guess from the checkpoint file:  "C=C(C)CC.chk"
 B after Tr=    -0.000030    0.000001    0.000000
         Rot=    0.996757   -0.000000   -0.000000   -0.080464 Ang=  -9.23 deg.
 Initial guess orbital symmetries:
       Occupied  (A') (A') (A') (A') (A') (A') (A') (A') (A') (A')
                 (A') (A") (A') (A") (A') (A') (A") (A') (A') (A")
       Virtual   (A") (A') (A') (A') (A') (A") (A') (A") (A') (A")
                 (A') (A') (A') (A') (A') (A') (A") (A') (A") (A')
                 (A') (A') (A") (A") (A') (A') (A') (A") (A') (A')
                 (A") (A') (A") (A') (A') (A') (A") (A') (A') (A')
                 (A') (A') (A') (A") (A") (A') (A") (A') (A') (A")
                 (A") (A') (A') (A') (A") (A') (A') (A') (A") (A')
                 (A") (A") (A") (A') (A") (A') (A") (A') (A') (A")
                 (A') (A") (A') (A") (A') (A') (A") (A") (A') (A')
                 (A') (A') (A") (A') (A') (A") (A") (A') (A') (A')
                 (A') (A') (A') (A") (A') (A") (A') (A') (A") (A')
                 (A') (A') (A') (A') (A')
 ExpMin= 1.61D-01 ExpMax= 3.05D+03 ExpMxC= 4.57D+02 IAcc=3 IRadAn=         5 AccDes= 0.00D+00
 Harris functional with IExCor=  402 and IRadAn=       5 diagonalized for initial guess.
 HarFok:  IExCor=  402 AccDes= 0.00D+00 IRadAn=         5 IDoV= 1 UseB2=F ITyADJ=14
 ICtDFT=  3500011 ScaDFX=  1.000000  1.000000  1.000000  1.000000
 FoFCou: FMM=F IPFlag=           0 FMFlag=      100000 FMFlg1=           0
         NFxFlg=           0 DoJE=T BraDBF=F KetDBF=T FulRan=T
         wScrn=  0.000000 ICntrl=       500 IOpCl=  0 I1Cent=   200000004 NGrid=           0
         NMat0=    1 NMatS0=      1 NMatT0=    0 NMatD0=    1 NMtDS0=    0 NMtDT0=    0
 Petite list used in FoFCou.
 Keep R1 ints in memory in symmetry-blocked form, NReq=46878990.
 Requested convergence on RMS density matrix=1.00D-08 within 128 cycles.
 Requested convergence on MAX density matrix=1.00D-06.
 Requested convergence on             energy=1.00D-06.
 Level shift goal  0.100 maximum shift  0.100.
 No special actions if energy rises.
 Dynamic level shift is on during FON iterations.
 Integral accuracy reduced to 1.0D-05 until final iterations.
 Initial convergence to 1.0D-05 achieved.  Increase integral accuracy.
 SCF Done:  E(RB3LYP) =  -196.552019592     A.U. after   11 cycles
            NFock= 11  Conv=0.50D-08     -V/T= 2.0108
 Calling FoFJK, ICntrl=      2127 FMM=F ISym2X=1 I1Cent= 0 IOpClX= 0 NMat=1 NMatS=1 NMatT=0.
 ***** Axes restored to original set *****
 -------------------------------------------------------------------
 Center     Atomic                   Forces (Hartrees/Bohr)
 Number     Number              X              Y              Z
 -------------------------------------------------------------------
      1        6           0.007694841    0.008279929   -0.000000000
      2        6          -0.009994570   -0.002095637   -0.000000000
      3        6           0.001833665    0.002489642    0.000000000
      4        6          -0.000843122   -0.003122216   -0.000000000
      5        6           0.001277128   -0.007084168    0.000000000
      6        1          -0.003287966    0.001619584   -0.000000000
      7        1          -0.002617137    0.001512241    0.000000000
      8        1           0.001441551    0.002583666   -0.000000000
      9        1           0.000680655   -0.000650729    0.002513189
     10        1           0.000680655   -0.000650729   -0.002513189
     11        1           0.002586538    0.000032015   -0.003355773
     12        1           0.002586538    0.000032015    0.003355773
     13        1           0.000107196   -0.003241419    0.000000000
     14        1          -0.001072986    0.000147903    0.001725027
     15        1          -0.001072986    0.000147903   -0.001725027
 -------------------------------------------------------------------
 Cartesian Forces:  Max     0.009994570 RMS     0.002997544

 GradGradGradGradGradGradGradGradGradGradGradGradGradGradGradGradGradGrad
 Berny optimization.
 Using GEDIIS/GDIIS optimizer.
 FormGI is forming the generalized inverse of G from B-inverse, IUseBI=4.
 Internal  Forces:  Max     0.016229134 RMS     0.004195393
 Search for a local minimum.
 Step number   2 out of a maximum of   73
 All quantities printed in internal units (Hartrees-Bohrs-Radians)
 Mixed Optimization -- RFO/linear search
 Update second derivatives using D2CorX and points    1    2
 DE= -8.37D-03 DEPred=-1.91D-02 R= 4.38D-01
 Trust test= 4.38D-01 RLast= 3.38D-01 DXMaxT set to 3.00D-01
 ITU=  0  0
 Use linear search instead of GDIIS.
     Eigenvalues ---    0.00461   0.00806   0.00806   0.01395   0.02922
     Eigenvalues ---    0.02922   0.03502   0.05527   0.05641   0.05710
     Eigenvalues ---    0.07264   0.07322   0.10526   0.13590   0.15599
     Eigenvalues ---    0.16000   0.16000   0.16000   0.16000   0.16000
     Eigenvalues ---    0.16000   0.16146   0.23666   0.24186   0.29324
     Eigenvalues ---    0.30653   0.31436   0.32278   0.32279   0.32282
     Eigenvalues ---    0.32283   0.32284   0.32289   0.32293   0.32661
     Eigenvalues ---    0.33551   0.33647   0.42860   0.59261
 RFO step:  Lambda=-1.35183121D-03 EMin= 4.60937089D-03
 Quartic linear search produced a step of -0.28327.
 Iteration  1 RMS(Cart)=  0.06357838 RMS(Int)=  0.00104938
 Iteration  2 RMS(Cart)=  0.00159529 RMS(Int)=  0.00019194
 Iteration  3 RMS(Cart)=  0.00000053 RMS(Int)=  0.00019194
 ClnCor:  largest displacement from symmetrization is 9.53D-10 for atom     6.
 Variable       Old X    -DE/DX   Delta X   Delta X   Delta X     New X
                                 (Linear)    (Quad)   (Total)
    R1        2.54115  -0.00827  -0.00412  -0.00534  -0.00946   2.53169
    R2        2.04203   0.00364   0.01037  -0.00331   0.00706   2.04909
    R3        2.05680  -0.00183   0.00620  -0.01047  -0.00427   2.05253
    R4        2.85238   0.00264  -0.00666   0.01278   0.00612   2.85850
    R5        2.89461  -0.01311  -0.01861  -0.00898  -0.02759   2.86701
    R6        2.07195  -0.00267   0.00883  -0.01519  -0.00635   2.06560
    R7        2.07998  -0.00186   0.00661  -0.01105  -0.00444   2.07555
    R8        2.07998  -0.00186   0.00661  -0.01105  -0.00444   2.07555
    R9        2.90795  -0.00434  -0.00844  -0.00161  -0.01005   2.89790
   R10        2.08246  -0.00135   0.00593  -0.00920  -0.00327   2.07919
   R11        2.08246  -0.00135   0.00593  -0.00920  -0.00327   2.07919
   R12        2.07621  -0.00318   0.00766  -0.01507  -0.00741   2.06881
   R13        2.07129  -0.00086   0.00906  -0.01141  -0.00235   2.06894
   R14        2.07129  -0.00086   0.00906  -0.01141  -0.00235   2.06894
    A1        2.14994  -0.00219  -0.01574   0.00212  -0.01362   2.13632
    A2        2.08596   0.00357   0.00239   0.01404   0.01642   2.10239
    A3        2.04728  -0.00138   0.01335  -0.01615  -0.00280   2.04448
    A4        2.06884   0.01399   0.00724   0.03290   0.04014   2.10898
    A5        2.20751  -0.01226  -0.03204  -0.00402  -0.03606   2.17145
    A6        2.00683  -0.00174   0.02481  -0.02888  -0.00408   2.00276
    A7        1.93578   0.00139  -0.00697   0.01208   0.00519   1.94098
    A8        1.93325   0.00158  -0.00657   0.01151   0.00500   1.93825
    A9        1.93325   0.00158  -0.00657   0.01151   0.00500   1.93825
   A10        1.89165  -0.00118   0.00524  -0.00857  -0.00324   1.88841
   A11        1.89165  -0.00118   0.00524  -0.00857  -0.00324   1.88841
   A12        1.87645  -0.00241   0.01013  -0.01973  -0.00956   1.86689
   A13        2.09810  -0.01623  -0.05296  -0.01065  -0.06324   2.03486
   A14        1.86652   0.00443   0.01236  -0.00540   0.00768   1.87420
   A15        1.86652   0.00443   0.01236  -0.00540   0.00768   1.87420
   A16        1.87796   0.00615   0.00910   0.01239   0.02148   1.89944
   A17        1.87796   0.00615   0.00910   0.01239   0.02148   1.89944
   A18        1.86522  -0.00432   0.01331  -0.00312   0.01059   1.87581
   A19        1.92277  -0.00137  -0.00330  -0.00065  -0.00392   1.91885
   A20        1.93738   0.00173  -0.00771   0.01193   0.00432   1.94170
   A21        1.93738   0.00173  -0.00771   0.01193   0.00432   1.94170
   A22        1.88202  -0.00001   0.00794  -0.00312   0.00484   1.88686
   A23        1.88202  -0.00001   0.00794  -0.00312   0.00484   1.88686
   A24        1.90053  -0.00218   0.00332  -0.01799  -0.01448   1.88605
    D1        3.14159  -0.00000   0.00000  -0.00000   0.00000   3.14159
    D2        0.00000  -0.00000   0.00000  -0.00000   0.00000   0.00000
    D3        0.00000   0.00000   0.00000   0.00000   0.00000   0.00000
    D4        3.14159   0.00000   0.00000   0.00000   0.00000   3.14159
    D5        0.00000   0.00000   0.00000  -0.00000   0.00000   0.00000
    D6        2.10131   0.00048  -0.00213   0.00489   0.00274   2.10405
    D7       -2.10131  -0.00048   0.00213  -0.00489  -0.00274  -2.10405
    D8        3.14159  -0.00000   0.00000  -0.00000   0.00000   3.14159
    D9       -1.04029   0.00048  -0.00213   0.00489   0.00274  -1.03755
   D10        1.04029  -0.00048   0.00213  -0.00489  -0.00274   1.03755
   D11        0.00000   0.00000   0.00000  -0.00000   0.00000   0.00000
   D12        2.14500   0.00039  -0.01452   0.00433  -0.00981   2.13519
   D13       -2.14500  -0.00039   0.01452  -0.00433   0.00981  -2.13519
   D14        3.14159   0.00000   0.00000  -0.00000   0.00000   3.14159
   D15       -0.99659   0.00039  -0.01452   0.00433  -0.00981  -1.00640
   D16        0.99659  -0.00039   0.01452  -0.00433   0.00981   1.00640
   D17        3.14159  -0.00000   0.00000  -0.00000   0.00000   3.14159
   D18       -1.05820   0.00020   0.00292   0.00329   0.00625  -1.05194
   D19        1.05820  -0.00020  -0.00292  -0.00329  -0.00625   1.05194
   D20        1.00213   0.00055   0.01295   0.00434   0.01751   1.01963
   D21        3.08552   0.00075   0.01586   0.00763   0.02376   3.10928
   D22       -1.08127   0.00034   0.01003   0.00105   0.01125  -1.07002
   D23       -1.00213  -0.00055  -0.01295  -0.00434  -0.01751  -1.01963
   D24        1.08127  -0.00034  -0.01003  -0.00105  -0.01125   1.07002
   D25       -3.08552  -0.00075  -0.01586  -0.00763  -0.02376  -3.10928
         Item               Value     Threshold  Converged?
 Maximum Force            0.016229     0.000450     NO 
 RMS     Force            0.004195     0.000300     NO 
 Maximum Displacement     0.260314     0.001800     NO 
 RMS     Displacement     0.064345     0.001200     NO 
 Predicted change in Energy=-1.070587D-03
 GradGradGradGradGradGradGradGradGradGradGradGradGradGradGradGradGradGrad

                          Input orientation:                          
 ---------------------------------------------------------------------
 Center     Atomic      Atomic             Coordinates (Angstroms)
 Number     Number       Type             X           Y           Z
 ---------------------------------------------------------------------
      1          6           0       -1.063356   -1.462442   -0.000012
      2          6           0        0.047010   -0.712833   -0.000012
      3          6           0        1.416363   -1.355481   -0.000012
      4          6           0        0.057376    0.804291   -0.000012
      5          6           0       -1.309225    1.500017   -0.000012
      6          1           0       -2.057194   -1.028775   -0.000012
      7          1           0       -0.995810   -2.546491   -0.000012
      8          1           0        1.341422   -2.445976   -0.000012
      9          1           0        1.994915   -1.051421   -0.882713
     10          1           0        1.994915   -1.051421    0.882688
     11          1           0        0.621263    1.129167    0.887148
     12          1           0        0.621263    1.129167   -0.887173
     13          1           0       -1.175078    2.586531   -0.000012
     14          1           0       -1.892431    1.229134   -0.886104
     15          1           0       -1.892431    1.229134    0.886079
 ---------------------------------------------------------------------
                    Distance matrix (angstroms):
                    1          2          3          4          5
     1  C    0.000000
     2  C    1.339712   0.000000
     3  C    2.482025   1.512654   0.000000
     4  C    2.528659   1.517159   2.551756   0.000000
     5  C    2.972644   2.595395   3.947492   1.533503   0.000000
     6  H    1.084334   2.127791   3.488887   2.798488   2.637090
     7  H    1.086152   2.109449   2.690183   3.512398   4.058627
     8  H    2.598134   2.163166   1.093067   3.494711   4.753608
     9  H    3.209536   2.165210   1.098333   2.824338   4.266888
    10  H    3.209536   2.165210   1.098333   2.824338   4.266888
    11  H    3.215810   2.123625   2.755488   1.100258   2.156703
    12  H    3.215810   2.123625   2.755488   1.100258   2.156703
    13  H    4.050515   3.518424   4.717523   2.166870   1.094764
    14  H    2.952475   2.884064   4.291097   2.183437   1.094836
    15  H    2.952475   2.884064   4.291097   2.183437   1.094836
                    6          7          8          9         10
     6  H    0.000000
     7  H    1.852026   0.000000
     8  H    3.682262   2.339392   0.000000
     9  H    4.147199   3.458154   1.775104   0.000000
    10  H    4.147199   3.458154   1.775104   1.765402   0.000000
    11  H    3.552168   4.112474   3.753309   3.126387   2.577189
    12  H    3.552168   4.112474   3.753309   2.577189   3.126387
    13  H    3.721366   5.136152   5.626625   4.905376   4.905376
    14  H    2.431143   3.980507   4.974877   4.506928   4.841592
    15  H    2.431143   3.980507   4.974877   4.841592   4.506928
                   11         12         13         14         15
    11  H    0.000000
    12  H    1.774322   0.000000
    13  H    2.477460   2.477460   0.000000
    14  H    3.077836   2.515682   1.772648   0.000000
    15  H    2.515682   3.077836   1.772648   1.772182   0.000000
 Stoichiometry    C5H10
 Framework group  CS[SG(C5H4),X(H6)]
 Deg. of freedom    24
 Full point group                 CS      NOp   2
 Largest Abelian subgroup         CS      NOp   2
 Largest concise Abelian subgroup CS      NOp   2
                         Standard orientation:                         
 ---------------------------------------------------------------------
 Center     Atomic      Atomic             Coordinates (Angstroms)
 Number     Number       Type             X           Y           Z
 ---------------------------------------------------------------------
      1          6           0        1.312799    0.817487    0.000000
      2          6           0        0.000000    0.550303    0.000000
      3          6           0       -1.018807    1.668406    0.000000
      4          6           0       -0.590629   -0.847170    0.000000
      5          6           0        0.405307   -2.013250    0.000000
      6          1           0        2.064763    0.036250    0.000000
      7          1           0        1.665590    1.844747    0.000000
      8          1           0       -0.531924    2.647049    0.000000
      9          1           0       -1.669698    1.609115   -0.882701
     10          1           0       -1.669698    1.609115    0.882701
     11          1           0       -1.235946   -0.931307    0.887161
     12          1           0       -1.235946   -0.931307   -0.887161
     13          1           0       -0.134742   -2.965540    0.000000
     14          1           0        1.047791   -1.986389   -0.886091
     15          1           0        1.047791   -1.986389    0.886091
 ---------------------------------------------------------------------
 Rotational constants (GHZ):           8.5591842           3.4950819           2.6028551
 Standard basis: 6-31G(d,p) (6D, 7F)
 There are    86 symmetry adapted cartesian basis functions of A'  symmetry.
 There are    39 symmetry adapted cartesian basis functions of A"  symmetry.
 There are    86 symmetry adapted basis functions of A'  symmetry.
 There are    39 symmetry adapted basis functions of A"  symmetry.
   125 basis functions,   210 primitive gaussians,   125 cartesian basis functions
    20 alpha electrons       20 beta electrons
       nuclear repulsion energy       174.8651034135 Hartrees.
 NAtoms=   15 NActive=   15 NUniq=   12 SFac= 1.56D+00 NAtFMM=   60 NAOKFM=F Big=F
 Integral buffers will be    131072 words long.
 Raffenetti 2 integral format.
 Two-electron integral symmetry is turned on.
 One-electron integrals computed using PRISM.
 NBasis=   125 RedAO= T EigKep=  3.33D-03  NBF=    86    39
 NBsUse=   125 1.00D-06 EigRej= -1.00D+00 NBFU=    86    39
 Initial guess from the checkpoint file:  "C=C(C)CC.chk"
 B after Tr=    -0.000000   -0.000000    0.000000
         Rot=    0.999923    0.000000    0.000000    0.012414 Ang=   1.42 deg.
 Initial guess orbital symmetries:
       Occupied  (A') (A') (A') (A') (A') (A') (A') (A') (A') (A')
                 (A') (A") (A') (A") (A') (A') (A") (A') (A') (A")
       Virtual   (A") (A') (A') (A') (A') (A") (A') (A") (A') (A")
                 (A') (A') (A') (A') (A') (A') (A') (A") (A") (A')
                 (A') (A') (A") (A') (A") (A') (A') (A") (A') (A')
                 (A") (A') (A') (A") (A') (A") (A') (A') (A') (A')
                 (A') (A') (A') (A") (A") (A') (A') (A") (A') (A")
                 (A") (A') (A') (A') (A') (A") (A') (A') (A") (A")
                 (A') (A") (A") (A') (A') (A") (A') (A") (A') (A")
                 (A') (A") (A') (A") (A') (A') (A") (A") (A') (A')
                 (A') (A") (A') (A') (A') (A") (A') (A") (A') (A')
                 (A') (A') (A') (A') (A") (A") (A') (A') (A") (A')
                 (A') (A') (A') (A') (A')
 ExpMin= 1.61D-01 ExpMax= 3.05D+03 ExpMxC= 4.57D+02 IAcc=3 IRadAn=         5 AccDes= 0.00D+00
 Harris functional with IExCor=  402 and IRadAn=       5 diagonalized for initial guess.
 HarFok:  IExCor=  402 AccDes= 0.00D+00 IRadAn=         5 IDoV= 1 UseB2=F ITyADJ=14
 ICtDFT=  3500011 ScaDFX=  1.000000  1.000000  1.000000  1.000000
 FoFCou: FMM=F IPFlag=           0 FMFlag=      100000 FMFlg1=           0
         NFxFlg=           0 DoJE=T BraDBF=F KetDBF=T FulRan=T
         wScrn=  0.000000 ICntrl=       500 IOpCl=  0 I1Cent=   200000004 NGrid=           0
         NMat0=    1 NMatS0=      1 NMatT0=    0 NMatD0=    1 NMtDS0=    0 NMtDT0=    0
 Petite list used in FoFCou.
 Keep R1 ints in memory in symmetry-blocked form, NReq=46878990.
 Requested convergence on RMS density matrix=1.00D-08 within 128 cycles.
 Requested convergence on MAX density matrix=1.00D-06.
 Requested convergence on             energy=1.00D-06.
 Level shift goal  0.100 maximum shift  0.100.
 No special actions if energy rises.
 Dynamic level shift is on during FON iterations.
 Integral accuracy reduced to 1.0D-05 until final iterations.
 Initial convergence to 1.0D-05 achieved.  Increase integral accuracy.
 SCF Done:  E(RB3LYP) =  -196.553846371     A.U. after   10 cycles
            NFock= 10  Conv=0.40D-08     -V/T= 2.0104
 Calling FoFJK, ICntrl=      2127 FMM=F ISym2X=1 I1Cent= 0 IOpClX= 0 NMat=1 NMatS=1 NMatT=0.
 ***** Axes restored to original set *****
 -------------------------------------------------------------------
 Center     Atomic                   Forces (Hartrees/Bohr)
 Number     Number              X              Y              Z
 -------------------------------------------------------------------
      1        6           0.003746448    0.003426310   -0.000000000
      2        6          -0.001316259   -0.002763122   -0.000000000
      3        6          -0.001878051    0.000645727    0.000000000
      4        6          -0.005745827   -0.003378947    0.000000000
      5        6           0.002360322   -0.001256767    0.000000000
      6        1          -0.000486766   -0.000470463    0.000000000
      7        1          -0.001353101   -0.000028676   -0.000000000
      8        1           0.000829781   -0.000044089   -0.000000000
      9        1           0.000264754    0.000028082    0.000760300
     10        1           0.000264754    0.000028082   -0.000760300
     11        1           0.002384814    0.001645958   -0.002768468
     12        1           0.002384814    0.001645958    0.002768468
     13        1          -0.001048306   -0.000293168   -0.000000000
     14        1          -0.000203688    0.000407558    0.000274478
     15        1          -0.000203688    0.000407558   -0.000274478
 -------------------------------------------------------------------
 Cartesian Forces:  Max     0.005745827 RMS     0.001691943

 GradGradGradGradGradGradGradGradGradGradGradGradGradGradGradGradGradGrad
 Berny optimization.
 Using GEDIIS/GDIIS optimizer.
 FormGI is forming the generalized inverse of G from B-inverse, IUseBI=4.
 Internal  Forces:  Max     0.003217154 RMS     0.000998784
 Search for a local minimum.
 Step number   3 out of a maximum of   73
 All quantities printed in internal units (Hartrees-Bohrs-Radians)
 Mixed Optimization -- En-DIIS/RFO-DIIS
 Update second derivatives using D2CorX and points    1    2    3
 DE= -1.83D-03 DEPred=-1.07D-03 R= 1.71D+00
 TightC=F SS=  1.41D+00  RLast= 1.13D-01 DXNew= 5.0454D-01 3.3881D-01
 Trust test= 1.71D+00 RLast= 1.13D-01 DXMaxT set to 3.39D-01
 ITU=  1  0  0
 Use linear search instead of GDIIS.
     Eigenvalues ---    0.00461   0.00806   0.00806   0.01397   0.02922
     Eigenvalues ---    0.02922   0.03847   0.05447   0.05529   0.05693
     Eigenvalues ---    0.07195   0.07268   0.10110   0.13248   0.15512
     Eigenvalues ---    0.15997   0.16000   0.16000   0.16000   0.16000
     Eigenvalues ---    0.16003   0.16352   0.22344   0.24940   0.25676
     Eigenvalues ---    0.30054   0.31874   0.32278   0.32280   0.32282
     Eigenvalues ---    0.32282   0.32284   0.32286   0.32304   0.32685
     Eigenvalues ---    0.33588   0.33652   0.36526   0.57574
 RFO step:  Lambda=-4.67160031D-04 EMin= 4.60937089D-03
 Quartic linear search produced a step of  0.10511.
 Iteration  1 RMS(Cart)=  0.01172736 RMS(Int)=  0.00009847
 Iteration  2 RMS(Cart)=  0.00011092 RMS(Int)=  0.00002197
 Iteration  3 RMS(Cart)=  0.00000000 RMS(Int)=  0.00002197
 ClnCor:  largest displacement from symmetrization is 5.21D-09 for atom     1.
 Variable       Old X    -DE/DX   Delta X   Delta X   Delta X     New X
                                 (Linear)    (Quad)   (Total)
    R1        2.53169  -0.00322  -0.00099  -0.00480  -0.00579   2.52589
    R2        2.04909   0.00026   0.00074  -0.00028   0.00046   2.04956
    R3        2.05253  -0.00006  -0.00045   0.00036  -0.00009   2.05244
    R4        2.85850  -0.00075   0.00064  -0.00340  -0.00275   2.85575
    R5        2.86701  -0.00082  -0.00290   0.00136  -0.00154   2.86548
    R6        2.06560  -0.00001  -0.00067   0.00079   0.00013   2.06572
    R7        2.07555  -0.00046  -0.00047  -0.00104  -0.00150   2.07404
    R8        2.07555  -0.00046  -0.00047  -0.00104  -0.00150   2.07404
    R9        2.89790  -0.00114  -0.00106  -0.00276  -0.00381   2.89409
   R10        2.07919  -0.00052  -0.00034  -0.00141  -0.00175   2.07743
   R11        2.07919  -0.00052  -0.00034  -0.00141  -0.00175   2.07743
   R12        2.06881  -0.00042  -0.00078  -0.00046  -0.00124   2.06757
   R13        2.06894  -0.00022  -0.00025  -0.00049  -0.00074   2.06820
   R14        2.06894  -0.00022  -0.00025  -0.00049  -0.00074   2.06820
    A1        2.13632  -0.00007  -0.00143   0.00094  -0.00050   2.13583
    A2        2.10239   0.00142   0.00173   0.00753   0.00926   2.11165
    A3        2.04448  -0.00135  -0.00029  -0.00847  -0.00876   2.03571
    A4        2.10898   0.00249   0.00422   0.00530   0.00952   2.11850
    A5        2.17145  -0.00245  -0.00379  -0.00588  -0.00967   2.16178
    A6        2.00276  -0.00004  -0.00043   0.00058   0.00015   2.00291
    A7        1.94098   0.00121   0.00055   0.00911   0.00964   1.95061
    A8        1.93825   0.00021   0.00053  -0.00045   0.00007   1.93831
    A9        1.93825   0.00021   0.00053  -0.00045   0.00007   1.93831
   A10        1.88841  -0.00047  -0.00034  -0.00095  -0.00131   1.88710
   A11        1.88841  -0.00047  -0.00034  -0.00095  -0.00131   1.88710
   A12        1.86689  -0.00079  -0.00101  -0.00696  -0.00797   1.85892
   A13        2.03486  -0.00209  -0.00665   0.00532  -0.00140   2.03346
   A14        1.87420   0.00113   0.00081   0.01087   0.01165   1.88585
   A15        1.87420   0.00113   0.00081   0.01087   0.01165   1.88585
   A16        1.89944   0.00117   0.00226   0.00504   0.00721   1.90666
   A17        1.89944   0.00117   0.00226   0.00504   0.00721   1.90666
   A18        1.87581  -0.00268   0.00111  -0.04183  -0.04073   1.83508
   A19        1.91885   0.00124  -0.00041   0.00965   0.00923   1.92807
   A20        1.94170   0.00035   0.00045   0.00118   0.00163   1.94333
   A21        1.94170   0.00035   0.00045   0.00118   0.00163   1.94333
   A22        1.88686  -0.00080   0.00051  -0.00554  -0.00504   1.88182
   A23        1.88686  -0.00080   0.00051  -0.00554  -0.00504   1.88182
   A24        1.88605  -0.00043  -0.00152  -0.00151  -0.00303   1.88301
    D1        3.14159   0.00000   0.00000   0.00000   0.00000   3.14159
    D2        0.00000   0.00000   0.00000   0.00000   0.00000   0.00000
    D3        0.00000  -0.00000   0.00000  -0.00000   0.00000   0.00000
    D4        3.14159  -0.00000   0.00000  -0.00000   0.00000   3.14159
    D5        0.00000   0.00000   0.00000   0.00000   0.00000   0.00000
    D6        2.10405   0.00036   0.00029   0.00466   0.00495   2.10899
    D7       -2.10405  -0.00036  -0.00029  -0.00466  -0.00495  -2.10899
    D8        3.14159   0.00000   0.00000   0.00000   0.00000   3.14159
    D9       -1.03755   0.00036   0.00029   0.00466   0.00495  -1.03260
   D10        1.03755  -0.00036  -0.00029  -0.00466  -0.00495   1.03260
   D11        0.00000   0.00000   0.00000   0.00000   0.00000   0.00000
   D12        2.13519   0.00099  -0.00103   0.01886   0.01787   2.15306
   D13       -2.13519  -0.00099   0.00103  -0.01886  -0.01787  -2.15306
   D14        3.14159   0.00000   0.00000   0.00000   0.00000   3.14159
   D15       -1.00640   0.00099  -0.00103   0.01886   0.01787  -0.98853
   D16        1.00640  -0.00099   0.00103  -0.01886  -0.01787   0.98853
   D17        3.14159   0.00000   0.00000   0.00000   0.00000   3.14159
   D18       -1.05194   0.00004   0.00066   0.00016   0.00082  -1.05113
   D19        1.05194  -0.00004  -0.00066  -0.00016  -0.00082   1.05113
   D20        1.01963  -0.00095   0.00184  -0.02216  -0.02031   0.99932
   D21        3.10928  -0.00091   0.00250  -0.02201  -0.01949   3.08979
   D22       -1.07002  -0.00098   0.00118  -0.02232  -0.02113  -1.09115
   D23       -1.01963   0.00095  -0.00184   0.02216   0.02031  -0.99932
   D24        1.07002   0.00098  -0.00118   0.02232   0.02113   1.09115
   D25       -3.10928   0.00091  -0.00250   0.02201   0.01949  -3.08979
         Item               Value     Threshold  Converged?
 Maximum Force            0.003217     0.000450     NO 
 RMS     Force            0.000999     0.000300     NO 
 Maximum Displacement     0.042367     0.001800     NO 
 RMS     Displacement     0.011771     0.001200     NO 
 Predicted change in Energy=-2.459343D-04
 GradGradGradGradGradGradGradGradGradGradGradGradGradGradGradGradGradGrad

                          Input orientation:                          
 ---------------------------------------------------------------------
 Center     Atomic      Atomic             Coordinates (Angstroms)
 Number     Number       Type             X           Y           Z
 ---------------------------------------------------------------------
      1          6           0       -1.066289   -1.454951   -0.000012
      2          6           0        0.048005   -0.716729   -0.000012
      3          6           0        1.416558   -1.357648   -0.000012
      4          6           0        0.056905    0.799589   -0.000012
      5          6           0       -1.309536    1.491172   -0.000012
      6          1           0       -2.056319   -1.012058   -0.000012
      7          1           0       -1.018229   -2.539990   -0.000012
      8          1           0        1.353012   -2.448933   -0.000012
      9          1           0        1.996348   -1.049435   -0.879464
     10          1           0        1.996348   -1.049435    0.879439
     11          1           0        0.633683    1.136853    0.872976
     12          1           0        0.633683    1.136853   -0.873001
     13          1           0       -1.188064    2.578517   -0.000012
     14          1           0       -1.893554    1.219398   -0.884810
     15          1           0       -1.893554    1.219398    0.884785
 ---------------------------------------------------------------------
                    Distance matrix (angstroms):
                    1          2          3          4          5
     1  C    0.000000
     2  C    1.336646   0.000000
     3  C    2.484753   1.511197   0.000000
     4  C    2.518833   1.516344   2.549967   0.000000
     5  C    2.956148   2.591860   3.943014   1.531485   0.000000
     6  H    1.084580   2.124946   3.490030   2.783484   2.612248
     7  H    1.086103   2.112140   2.706681   3.508377   4.041673
     8  H    2.615533   2.168773   1.093134   3.497541   4.755374
     9  H    3.212106   2.163370   1.097536   2.820242   4.261102
    10  H    3.212106   2.163370   1.097536   2.820242   4.261102
    11  H    3.220165   2.130938   2.756363   1.099331   2.159572
    12  H    3.220165   2.130938   2.756363   1.099331   2.159572
    13  H    4.035306   3.519448   4.719900   2.171298   1.094110
    14  H    2.935877   2.881163   4.287292   2.182521   1.094443
    15  H    2.935877   2.881163   4.287292   2.182521   1.094443
                    6          7          8          9         10
     6  H    0.000000
     7  H    1.847216   0.000000
     8  H    3.699750   2.372989   0.000000
     9  H    4.147161   3.476042   1.773672   0.000000
    10  H    4.147161   3.476042   1.773672   1.758903   0.000000
    11  H    3.551906   4.124330   3.759975   3.115728   2.576190
    12  H    3.551906   4.124330   3.759975   2.576190   3.115728
    13  H    3.694062   5.121324   5.633145   4.906726   4.906726
    14  H    2.405983   3.960058   4.977922   4.503217   4.836477
    15  H    2.405983   3.960058   4.977922   4.836477   4.503217
                   11         12         13         14         15
    11  H    0.000000
    12  H    1.745978   0.000000
    13  H    2.481787   2.481787   0.000000
    14  H    3.079538   2.528612   1.768555   0.000000
    15  H    2.528612   3.079538   1.768555   1.769596   0.000000
 Stoichiometry    C5H10
 Framework group  CS[SG(C5H4),X(H6)]
 Deg. of freedom    24
 Full point group                 CS      NOp   2
 Largest Abelian subgroup         CS      NOp   2
 Largest concise Abelian subgroup CS      NOp   2
                         Standard orientation:                         
 ---------------------------------------------------------------------
 Center     Atomic      Atomic             Coordinates (Angstroms)
 Number     Number       Type             X           Y           Z
 ---------------------------------------------------------------------
      1          6           0        1.312202    0.807458    0.000000
      2          6           0        0.000000    0.553004    0.000000
      3          6           0       -1.018128    1.669754    0.000000
      4          6           0       -0.589721   -0.843968    0.000000
      5          6           0        0.407028   -2.006697    0.000000
      6          1           0        2.056690    0.018755    0.000000
      7          1           0        1.683925    1.827969    0.000000
      8          1           0       -0.540938    2.653233    0.000000
      9          1           0       -1.671788    1.607453   -0.879451
     10          1           0       -1.671788    1.607453    0.879451
     11          1           0       -1.251739   -0.934254    0.872989
     12          1           0       -1.251739   -0.934254   -0.872989
     13          1           0       -0.122148   -2.964323    0.000000
     14          1           0        1.050617   -1.979670   -0.884798
     15          1           0        1.050617   -1.979670    0.884798
 ---------------------------------------------------------------------
 Rotational constants (GHZ):           8.5720281           3.5075602           2.6091710
 Standard basis: 6-31G(d,p) (6D, 7F)
 There are    86 symmetry adapted cartesian basis functions of A'  symmetry.
 There are    39 symmetry adapted cartesian basis functions of A"  symmetry.
 There are    86 symmetry adapted basis functions of A'  symmetry.
 There are    39 symmetry adapted basis functions of A"  symmetry.
   125 basis functions,   210 primitive gaussians,   125 cartesian basis functions
    20 alpha electrons       20 beta electrons
       nuclear repulsion energy       175.0370240369 Hartrees.
 NAtoms=   15 NActive=   15 NUniq=   12 SFac= 1.56D+00 NAtFMM=   60 NAOKFM=F Big=F
 Integral buffers will be    131072 words long.
 Raffenetti 2 integral format.
 Two-electron integral symmetry is turned on.
 One-electron integrals computed using PRISM.
 NBasis=   125 RedAO= T EigKep=  3.29D-03  NBF=    86    39
 NBsUse=   125 1.00D-06 EigRej= -1.00D+00 NBFU=    86    39
 Initial guess from the checkpoint file:  "C=C(C)CC.chk"
 B after Tr=     0.000000   -0.000000    0.000000
         Rot=    1.000000    0.000000    0.000000    0.000348 Ang=   0.04 deg.
 Initial guess orbital symmetries:
       Occupied  (A') (A') (A') (A') (A') (A') (A') (A') (A') (A')
                 (A') (A") (A') (A") (A') (A') (A") (A') (A') (A")
       Virtual   (A") (A') (A') (A') (A') (A") (A') (A") (A') (A")
                 (A') (A') (A') (A') (A') (A') (A') (A") (A") (A')
                 (A') (A') (A") (A") (A') (A') (A') (A") (A') (A')
                 (A") (A') (A') (A") (A') (A") (A') (A') (A') (A')
                 (A') (A') (A') (A") (A") (A') (A") (A') (A') (A")
                 (A") (A') (A') (A') (A") (A') (A') (A') (A") (A")
                 (A') (A") (A') (A") (A") (A') (A') (A") (A') (A")
                 (A') (A") (A') (A") (A') (A') (A") (A") (A') (A')
                 (A') (A") (A') (A') (A') (A") (A') (A") (A') (A')
                 (A') (A') (A') (A') (A") (A") (A') (A') (A") (A')
                 (A') (A') (A') (A') (A')
 ExpMin= 1.61D-01 ExpMax= 3.05D+03 ExpMxC= 4.57D+02 IAcc=3 IRadAn=         5 AccDes= 0.00D+00
 Harris functional with IExCor=  402 and IRadAn=       5 diagonalized for initial guess.
 HarFok:  IExCor=  402 AccDes= 0.00D+00 IRadAn=         5 IDoV= 1 UseB2=F ITyADJ=14
 ICtDFT=  3500011 ScaDFX=  1.000000  1.000000  1.000000  1.000000
 FoFCou: FMM=F IPFlag=           0 FMFlag=      100000 FMFlg1=           0
         NFxFlg=           0 DoJE=T BraDBF=F KetDBF=T FulRan=T
         wScrn=  0.000000 ICntrl=       500 IOpCl=  0 I1Cent=   200000004 NGrid=           0
         NMat0=    1 NMatS0=      1 NMatT0=    0 NMatD0=    1 NMtDS0=    0 NMtDT0=    0
 Petite list used in FoFCou.
 Keep R1 ints in memory in symmetry-blocked form, NReq=46878990.
 Requested convergence on RMS density matrix=1.00D-08 within 128 cycles.
 Requested convergence on MAX density matrix=1.00D-06.
 Requested convergence on             energy=1.00D-06.
 Level shift goal  0.100 maximum shift  0.100.
 No special actions if energy rises.
 Dynamic level shift is on during FON iterations.
 Integral accuracy reduced to 1.0D-05 until final iterations.
 Initial convergence to 1.0D-05 achieved.  Increase integral accuracy.
 SCF Done:  E(RB3LYP) =  -196.554131622     A.U. after    9 cycles
            NFock=  9  Conv=0.88D-08     -V/T= 2.0103
 Calling FoFJK, ICntrl=      2127 FMM=F ISym2X=1 I1Cent= 0 IOpClX= 0 NMat=1 NMatS=1 NMatT=0.
 ***** Axes restored to original set *****
 -------------------------------------------------------------------
 Center     Atomic                   Forces (Hartrees/Bohr)
 Number     Number              X              Y              Z
 -------------------------------------------------------------------
      1        6           0.000382751    0.000616082    0.000000000
      2        6           0.001006801   -0.000118056    0.000000000
      3        6          -0.000909738    0.000325958    0.000000000
      4        6          -0.002727891   -0.000995534    0.000000000
      5        6           0.001242172   -0.000473721    0.000000000
      6        1          -0.000192584   -0.000303614   -0.000000000
      7        1          -0.000401103   -0.000104994    0.000000000
      8        1           0.000078451    0.000047018   -0.000000000
      9        1           0.000172241    0.000047569   -0.000068270
     10        1           0.000172241    0.000047569    0.000068270
     11        1           0.000781416    0.000357900    0.000057153
     12        1           0.000781416    0.000357900   -0.000057153
     13        1          -0.000096770    0.000078781    0.000000000
     14        1          -0.000144701    0.000058572   -0.000058931
     15        1          -0.000144701    0.000058572    0.000058931
 -------------------------------------------------------------------
 Cartesian Forces:  Max     0.002727891 RMS     0.000570094

 GradGradGradGradGradGradGradGradGradGradGradGradGradGradGradGradGradGrad
 Berny optimization.
 Using GEDIIS/GDIIS optimizer.
 FormGI is forming the generalized inverse of G from B-inverse, IUseBI=4.
 Internal  Forces:  Max     0.000890583 RMS     0.000248585
[...]
     6   1     0.00  -0.00   0.00    -0.02   0.02   0.00    -0.00   0.00  -0.00
     7   1     0.00   0.00  -0.00     0.00  -0.00   0.00     0.00   0.00  -0.00
     8   1    -0.00  -0.00  -0.02    -0.03  -0.06  -0.00    -0.00  -0.00   0.00
     9   1     0.45   0.05   0.58    -0.01  -0.00  -0.01     0.00   0.00   0.00
    10   1    -0.45  -0.05   0.58    -0.01  -0.00   0.01    -0.00  -0.00   0.00
    11   1    -0.03  -0.01   0.03     0.03   0.00  -0.04    -0.06  -0.01   0.07
    12   1     0.03   0.01   0.03     0.03   0.00   0.04     0.06   0.01   0.07
    13   1    -0.00  -0.00   0.00     0.42   0.76   0.00     0.00   0.00  -0.02
    14   1     0.01   0.00  -0.01     0.23   0.00  -0.34    -0.44  -0.03   0.59
    15   1    -0.01  -0.00  -0.01     0.23   0.00   0.34     0.44   0.03   0.59
                     37                     38                     39
                     ?N                     ?N                     ?N
 Frequencies --   3125.0745              3159.4840              3241.8466
 Red. masses --      1.0999                 1.0612                 1.1145
 Frc consts  --      6.3287                 6.2412                 6.9011
 IR Inten    --     26.8682                 8.7795                17.6881
  Atom  AN      X      Y      Z        X      Y      Z        X      Y      Z
     1   6     0.00   0.00  -0.00    -0.07  -0.03   0.00     0.03  -0.10   0.00
     2   6    -0.00  -0.00   0.00     0.01   0.00  -0.00    -0.00  -0.00  -0.00
     3   6    -0.06  -0.07  -0.00    -0.00  -0.00   0.00    -0.00  -0.00   0.00
     4   6    -0.00   0.00  -0.00     0.00   0.00   0.00     0.00   0.00  -0.00
     5   6    -0.00  -0.00  -0.00    -0.00  -0.00   0.00     0.00   0.00   0.00
     6   1    -0.01   0.01  -0.00     0.42  -0.47  -0.00    -0.57   0.60   0.00
     7   1    -0.01  -0.04  -0.00     0.27   0.76   0.00     0.23   0.60  -0.00
     8   1     0.43   0.87  -0.00     0.02   0.04   0.00     0.00   0.02   0.00
     9   1     0.15   0.00   0.23    -0.00   0.00   0.00     0.00   0.00   0.00
    10   1     0.15   0.00  -0.23    -0.00   0.00  -0.00     0.00   0.00  -0.00
    11   1     0.01   0.00  -0.01    -0.01  -0.00   0.01    -0.00   0.00   0.00
    12   1     0.01   0.00   0.01    -0.01  -0.00  -0.01    -0.00   0.00  -0.00
    13   1     0.02   0.04  -0.00     0.01   0.01   0.00    -0.01  -0.01   0.00
    14   1     0.02  -0.00  -0.02     0.01   0.00  -0.01    -0.01  -0.00   0.01
    15   1     0.02  -0.00   0.02     0.01   0.00   0.01    -0.01  -0.00  -0.01

 -------------------
 - Thermochemistry -
 -------------------
 Temperature  3000.000 Kelvin.  Pressure   0.98700 Atm.
 Atom     1 has atomic number  6 and mass  12.00000
 Atom     2 has atomic number  6 and mass  12.00000
 Atom     3 has atomic number  6 and mass  12.00000
 Atom     4 has atomic number  6 and mass  12.00000
 Atom     5 has atomic number  6 and mass  12.00000
 Atom     6 has atomic number  1 and mass   1.00783
 Atom     7 has atomic number  1 and mass   1.00783
 Atom     8 has atomic number  1 and mass   1.00783
 Atom     9 has atomic number  1 and mass   1.00783
 Atom    10 has atomic number  1 and mass   1.00783
 Atom    11 has atomic number  1 and mass   1.00783
 Atom    12 has atomic number  1 and mass   1.00783
 Atom    13 has atomic number  1 and mass   1.00783
 Atom    14 has atomic number  1 and mass   1.00783
 Atom    15 has atomic number  1 and mass   1.00783
 Molecular mass:    70.07825 amu.
 Principal axes and moments of inertia in atomic units:
                           1         2         3
     Eigenvalues --   210.61687 513.91652 691.22413
           X           -0.20136   0.97952   0.00000
           Y            0.97952   0.20136   0.00000
           Z           -0.00000   0.00000   1.00000
 This molecule is an asymmetric top.
 Rotational symmetry number  1.
 Rotational temperatures (Kelvin)      0.41124     0.16854     0.12531
 Rotational constants (GHZ):           8.56883     3.51174     2.61093
 Zero-point vibrational energy     359534.7 (Joules/Mol)
                                   85.93085 (Kcal/Mol)
 Warning -- explicit consideration of  39 degrees of freedom as
           vibrations may cause significant error
 Identified internal rotation modes:
   46   2   3
 Vibrational temperatures:    136.76   265.11   383.64   396.45   573.40
          (Kelvin)            630.47   711.96   990.69  1128.31  1168.73
                             1323.20  1373.14  1454.23  1480.68  1512.04
                             1591.08  1625.87  1814.77  1873.28  2008.64
                             2042.31  2052.60  2100.86  2139.62  2149.77
                             2171.23  2176.05  2194.33  2496.17  4324.65
                             4352.34  4355.91  4384.41  4421.22  4486.83
                             4487.07  4496.29  4545.79  4664.29
 
 Zero-point correction=                           0.136940 (Hartree/Particle)
 Thermal correction to Energy=                    0.422314
 Thermal correction to Enthalpy=                  0.431814
 Thermal correction to Gibbs Free Energy=        -0.561018
 Sum of electronic and zero-point Energies=           -196.417208
 Sum of electronic and thermal Energies=              -196.131834
 Sum of electronic and thermal Enthalpies=            -196.122333
 Sum of electronic and thermal Free Energies=         -197.115166
 
                     E (Thermal)             CV                S
                      KCal/Mol        Cal/Mol-Kelvin    Cal/Mol-Kelvin
 Total                  265.006             78.851            207.671
 Corrected for 
 internal rot.          259.631             76.036            205.561
 Electronic               0.000              0.000              0.000
 Translational            8.942              2.981             50.154
 Rotational               8.942              2.981             32.699
 Vibrational            247.121             72.889            124.817
 Vibration     1          5.963              1.987              8.124
 Vibration     2          5.965              1.986              6.809
 Vibration     3          5.970              1.984              6.076
 Vibration     4          5.970              1.984              6.010
 Vibration     5          5.980              1.981              5.279
 Vibration     6          5.984              1.980              5.091
 Vibration     7          5.990              1.978              4.850
 Vibration     8          6.016              1.969              4.198
 Vibration     9          6.032              1.964              3.942
 Vibration    10          6.037              1.962              3.873
 Vibration    11          6.058              1.955              3.630
 Vibration    12          6.065              1.953              3.557
 Vibration    13          6.078              1.949              3.446
 Vibration    14          6.082              1.947              3.410
 Vibration    15          6.087              1.946              3.370
 Vibration    16          6.101              1.941              3.271
 Vibration    17          6.107              1.939              3.229
 Vibration    18          6.142              1.928              3.016
 Vibration    19          6.154              1.924              2.955
 Vibration    20          6.183              1.915              2.821
 Vibration    21          6.190              1.912              2.789
 Vibration    22          6.192              1.911              2.780
 Vibration    23          6.203              1.908              2.735
 Vibration    24          6.212              1.905              2.700
 Vibration    25          6.215              1.904              2.691
 Vibration    26          6.220              1.903              2.673
 Vibration    27          6.221              1.902              2.668
 Vibration    28          6.225              1.901              2.652
 Vibration    29          6.302              1.876              2.409
 Vibration    30          6.960              1.676              1.424
 Vibration    31          6.972              1.672              1.413
 Vibration    32          6.974              1.672              1.412
 Vibration    33          6.987              1.668              1.401
 Vibration    34          7.003              1.663              1.387
 Vibration    35          7.034              1.655              1.363
 Vibration    36          7.034              1.655              1.363
 Vibration    37          7.038              1.654              1.359
 Vibration    38          7.061              1.647              1.341
 Vibration    39          7.117              1.631              1.299
                       Q            Log10(Q)             Ln(Q)
 Total Bot       0.442478D+26         25.645892         59.051848
 Corrected for 
 Internal rot.   0.376979D+26         25.576317         58.891646
 Total V=0       0.805053D+32         31.905825         73.465876
 Corrected for 
 Internal rot.   0.685883D+32         31.836250         73.305674
 Vib (Bot)       0.188706D+10          9.275786         21.358287
 Vib (Bot)    1  0.219340D+02          1.341117          3.088037
 Vib (Bot)    2  0.113125D+02          1.053559          2.425908
 Vib (Bot)    3  0.781442D+01          0.892897          2.055971
 Vib (Bot)    4  0.756167D+01          0.878617          2.023091
 Vib (Bot)    5  0.522403D+01          0.718006          1.653269
 Vib (Bot)    6  0.474965D+01          0.676661          1.558070
 Vib (Bot)    7  0.420386D+01          0.623648          1.436004
 Vib (Bot)    8  0.301449D+01          0.479213          1.103430
 Vib (Bot)    9  0.264323D+01          0.422135          0.972002
 Vib (Bot)   10  0.255074D+01          0.406666          0.936383
 Vib (Bot)   11  0.224896D+01          0.351983          0.810470
 Vib (Bot)   12  0.216582D+01          0.335623          0.772800
 Vib (Bot)   13  0.204288D+01          0.310244          0.714363
 Vib (Bot)   14  0.200568D+01          0.302262          0.695983
 Vib (Bot)   15  0.196323D+01          0.292971          0.674590
 Vib (Bot)   16  0.186359D+01          0.270351          0.622506
 Vib (Bot)   17  0.182277D+01          0.260732          0.600359
 Vib (Bot)   18  0.162816D+01          0.211697          0.487451
 Vib (Bot)   19  0.157575D+01          0.197486          0.454729
 Vib (Bot)   20  0.146601D+01          0.166137          0.382546
 Vib (Bot)   21  0.144094D+01          0.158645          0.365295
 Vib (Bot)   22  0.143344D+01          0.156378          0.360074
 Vib (Bot)   23  0.139922D+01          0.145886          0.335915
 Vib (Bot)   24  0.137284D+01          0.137618          0.316878
 Vib (Bot)   25  0.136608D+01          0.135476          0.311946
 Vib (Bot)   26  0.135200D+01          0.130978          0.301588
 Vib (Bot)   27  0.134888D+01          0.129973          0.299274
 Vib (Bot)   28  0.133715D+01          0.126181          0.290542
 Vib (Bot)   29  0.116786D+01          0.067390          0.155172
 Vib (Bot)   30  0.637085D+00         -0.195802         -0.450852
 Vib (Bot)   31  0.632351D+00         -0.199042         -0.458311
 Vib (Bot)   32  0.631745D+00         -0.199458         -0.459270
 Vib (Bot)   33  0.626939D+00         -0.202775         -0.466906
 Vib (Bot)   34  0.620818D+00         -0.207036         -0.476717
 Vib (Bot)   35  0.610146D+00         -0.214566         -0.494057
 Vib (Bot)   36  0.610107D+00         -0.214594         -0.494121
 Vib (Bot)   37  0.608631D+00         -0.215646         -0.496542
 Vib (Bot)   38  0.600801D+00         -0.221269         -0.509491
 Vib (Bot)   39  0.582696D+00         -0.234558         -0.540090
 Vib (V=0)       0.343336D+16         15.535719         35.772316
 Vib (V=0)    1  0.224397D+02          1.351017          3.110830
 Vib (V=0)    2  0.118235D+02          1.072748          2.470093
 Vib (V=0)    3  0.833040D+01          0.920666          2.119911
 Vib (V=0)    4  0.807818D+01          0.907313          2.089166
 Vib (V=0)    5  0.574790D+01          0.759509          1.748835
 Vib (V=0)    6  0.527589D+01          0.722296          1.663147
 Vib (V=0)    7  0.473349D+01          0.675182          1.554663
 Vib (V=0)    8  0.355567D+01          0.550922          1.268544
 Vib (V=0)    9  0.319011D+01          0.503805          1.160054
 Vib (V=0)   10  0.309928D+01          0.491261          1.131170
 Vib (V=0)   11  0.280388D+01          0.447759          1.031003
 Vib (V=0)   12  0.272279D+01          0.435014          1.001657
 Vib (V=0)   13  0.260318D+01          0.415505          0.956735
 Vib (V=0)   14  0.256706D+01          0.409437          0.942763
 Vib (V=0)   15  0.252590D+01          0.402416          0.926597
 Vib (V=0)   16  0.242950D+01          0.385517          0.887686
 Vib (V=0)   17  0.239011D+01          0.378417          0.871338
 Vib (V=0)   18  0.220320D+01          0.343055          0.789913
 Vib (V=0)   19  0.215317D+01          0.333079          0.766942
 Vib (V=0)   20  0.204893D+01          0.311528          0.717319
 Vib (V=0)   21  0.202522D+01          0.306473          0.705680
 Vib (V=0)   22  0.201814D+01          0.304950          0.702174
 Vib (V=0)   23  0.198587D+01          0.297951          0.686058
 Vib (V=0)   24  0.196105D+01          0.292489          0.673482
 Vib (V=0)   25  0.195471D+01          0.291082          0.670241
 Vib (V=0)   26  0.194150D+01          0.288137          0.663460
 Vib (V=0)   27  0.193857D+01          0.287481          0.661949
 Vib (V=0)   28  0.192758D+01          0.285012          0.656264
 Vib (V=0)   29  0.177039D+01          0.248069          0.571200
 Vib (V=0)   30  0.130986D+01          0.117226          0.269922
 Vib (V=0)   31  0.130614D+01          0.115991          0.267079
 Vib (V=0)   32  0.130567D+01          0.115833          0.266715
 Vib (V=0)   33  0.130191D+01          0.114580          0.263829
 Vib (V=0)   34  0.129713D+01          0.112983          0.260154
 Vib (V=0)   35  0.128885D+01          0.110201          0.253747
 Vib (V=0)   36  0.128882D+01          0.110191          0.253724
 Vib (V=0)   37  0.128768D+01          0.109806          0.252838
 Vib (V=0)   38  0.128164D+01          0.107766          0.248141
 Vib (V=0)   39  0.126781D+01          0.103055          0.237292
 Electronic      0.100000D+01          0.000000          0.000000
 Translational   0.750287D+10          9.875228         22.738552
 Rotational      0.312520D+07          6.494878         14.955008
 ***** Axes restored to original set *****
 -------------------------------------------------------------------
 Center     Atomic                   Forces (Hartrees/Bohr)
 Number     Number              X              Y              Z
 -------------------------------------------------------------------
      1        6           0.000038659    0.000058746    0.000000000
      2        6           0.000301879    0.000065853   -0.000000000
      3        6          -0.000141045    0.000029789    0.000000000
      4        6          -0.000448373    0.000002542   -0.000000000
      5        6           0.000284416   -0.000046319   -0.000000000
      6        1          -0.000017581   -0.000048592   -0.000000000
      7        1          -0.000051890   -0.000019520    0.000000000
      8        1           0.000023120   -0.000000394   -0.000000000
      9        1           0.000008899   -0.000012425    0.000003550
     10        1           0.000008899   -0.000012425   -0.000003550
     11        1           0.000042210   -0.000017526    0.000081046
     12        1           0.000042210   -0.000017526   -0.000081046
     13        1          -0.000007387    0.000001045   -0.000000000
     14        1          -0.000042007    0.000008376    0.000020018
     15        1          -0.000042007    0.000008376   -0.000020018
 -------------------------------------------------------------------
 Cartesian Forces:  Max     0.000448373 RMS     0.000098194
 FormGI is forming the generalized inverse of G from B-inverse, IUseBI=4.

 ----------------------------------------------------------------------

 Electric dipole moment (input orientation):
 (Debye = 10**-18 statcoulomb cm , SI units = C m)
                  (au)            (Debye)         (10**-30 SI)
   Tot        0.214301D+00      0.544698D+00      0.181692D+01
   x          0.165395D+00      0.420393D+00      0.140228D+01
   y          0.136269D+00      0.346361D+00      0.115534D+01
   z          0.000000D+00      0.000000D+00      0.000000D+00

 Dipole polarizability, Alpha (input orientation).
 (esu units = cm**3 , SI units = C**2 m**2 J**-1)
 Alpha(0;0):
               (au)            (10**-24 esu)      (10**-40 SI)
   iso        0.534699D+02      0.792341D+01      0.881599D+01
   aniso      0.230957D+02      0.342243D+01      0.380796D+01
   xx         0.619151D+02      0.917487D+01      0.102084D+02
   yx         0.278593D+01      0.412832D+00      0.459337D+00
   yy         0.600431D+02      0.889747D+01      0.989977D+01
   zx         0.000000D+00      0.000000D+00      0.000000D+00
   zy         0.000000D+00      0.000000D+00      0.000000D+00
   zz         0.384514D+02      0.569791D+01      0.633977D+01

 ----------------------------------------------------------------------

 Dipole orientation:
     6          0.53442474         -0.64861586         -3.30536040
     6          0.70258694         -0.85272115         -0.79345710
     6          2.33987954         -2.83996967          0.43591130
     6         -0.69722755          0.84629054          1.03768112
     6         -2.38189705          2.89104234         -0.11799333
     1         -0.63259211          0.76783988         -4.21823470
     1          1.57485545         -1.91142888         -4.54499908
     1          3.30593314         -4.01250817         -0.96360083
     1          3.77816247         -1.97281878          1.65384569
     1          1.21357455         -4.08578088          1.65384569
     1         -1.83724962         -0.35740355          2.29290552
     1          0.70234062          1.73496299          2.29290552
     1         -3.29678188          4.00147521          1.36720740
     1         -1.28836702          4.19310858         -1.29612078
     1         -3.86912536          2.06682368         -1.29612078

 Electric dipole moment (dipole orientation):
 (Debye = 10**-18 statcoulomb cm , SI units = C m)
                  (au)            (Debye)         (10**-30 SI)
   Tot        0.214301D+00      0.544698D+00      0.181692D+01
   x          0.000000D+00      0.000000D+00      0.000000D+00
   y          0.000000D+00      0.000000D+00      0.000000D+00
   z          0.214301D+00      0.544698D+00      0.181692D+01

 Dipole polarizability, Alpha (dipole orientation).
 (esu units = cm**3 , SI units = C**2 m**2 J**-1)
 Alpha(0;0):
               (au)            (10**-24 esu)      (10**-40 SI)
   iso        0.534699D+02      0.792341D+01      0.881599D+01
   aniso      0.230957D+02      0.342243D+01      0.380796D+01
   xx         0.463822D+02      0.687313D+01      0.764739D+01
   yx        -0.962593D+01     -0.142642D+01     -0.158710D+01
   yy         0.501348D+02      0.742920D+01      0.826610D+01
   zx         0.245254D+00      0.363428D-01      0.404368D-01
   zy        -0.297674D+00     -0.441108D-01     -0.490798D-01
   zz         0.638926D+02      0.946791D+01      0.105345D+02

 ----------------------------------------------------------------------

 This type of calculation cannot be archived.


 REFRAIN FROM ILLUSIONS, INSIST ON WORK AND NOT WORDS,
 PATIENTLY SEEK DIVINE AND SCIENTIFIC TRUTH.
 LAST WORDS OF MARIA MENDELEEVA TO HER SON DMITRI, C. 1850
 Job cpu time:       0 days  0 hours  0 minutes  0.3 seconds.
 Elapsed time:       0 days  0 hours  0 minutes  0.3 seconds.
 File lengths (MBytes):  RWF=      6 Int=      0 D2E=      0 Chk=      2 Scr=      1
 Normal termination of Gaussian 16 at Sat Apr 30 16:02:21 2022.
