 Entering Gaussian System, Link 0=g16
 Initial command:
 /software//g16/l1.exe "/home/tmp/g16/Gau-2328158.inp" -scrdir="/home/tmp/g16/"
 Entering Link 1 = /software//g16/l1.exe PID=   2328159.
  
 Copyright (c) 1988-2019, Gaussian, Inc.  All Rights Reserved.
  
 This is part of the Gaussian(R) 16 program.  It is based on
 the Gaussian(R) 09 system (copyright 2009, Gaussian, Inc.),
 the Gaussian(R) 03 system (copyright 2003, Gaussian, Inc.),
 the Gaussian(R) 98 system (copyright 1998, Gaussian, Inc.),
 the Gaussian(R) 94 system (copyright 1995, Gaussian, Inc.),
 the Gaussian 92(TM) system (copyright 1992, Gaussian, Inc.),
 the Gaussian 90(TM) system (copyright 1990, Gaussian, Inc.),
 the Gaussian 88(TM) system (copyright 1988, Gaussian, Inc.),
 the Gaussian 86(TM) system (copyright 1986, Carnegie Mellon
 University), and the Gaussian 82(TM) system (copyright 1983,
 Carnegie Mellon University). Gaussian is a federally registered
 trademark of Gaussian, Inc.
  
 This software contains proprietary and confidential information,
 including trade secrets, belonging to Gaussian, Inc.
  
 This software is provided under written license and may be
 used, copied, transmitted, or stored only in accord with that
 written license.
  
 The following legend is applicable only to US Government
 contracts under FAR:
  
                    RESTRICTED RIGHTS LEGEND
  
 Use, reproduction and disclosure by the US Government is
 subject to restrictions as set forth in subparagraphs (a)
 and (c) of the Commercial Computer Software - Restricted
 Rights clause in FAR 52.227-19.
  
 Gaussian, Inc.
 340 Quinnipiac St., Bldg. 40, Wallingford CT 06492
  
  
 ---------------------------------------------------------------
 Warning -- This program may not be used in any manner that
 competes with the business of Gaussian, Inc. or will provide
 assistance to any competitor of Gaussian, Inc.  The licensee
 of this program is prohibited from giving any competitor of
 Gaussian, Inc. access to this program.  By using this program,
 the user acknowledges that Gaussian, Inc. is engaged in the
 business of creating and licensing software in the field of
 computational chemistry and represents and warrants to the
 licensee that it is not a competitor of Gaussian, Inc. and that
 it will not use this program in any manner prohibited above.
 ---------------------------------------------------------------
  

 Cite this work as:
 Gaussian 16, Revision C.01,
 M. J. Frisch, G. W. Trucks, H. B. Schlegel, G. E. Scuseria, 
 M. A. Robb, J. R. Cheeseman, G. Scalmani, V. Barone, 
 G. A. Petersson, H. Nakatsuji, X. Li, M. Caricato, A. V. Marenich, 
 J. Bloino, B. G. Janesko, R. Gomperts, B. Mennucci, H. P. Hratchian, 
 J. V. Ortiz, A. F. Izmaylov, J. L. Sonnenberg, D. Williams-Young, 
 F. Ding, F. Lipparini, F. Egidi, J. Goings, B. Peng, A. Petrone, 
 T. Henderson, D. Ranasinghe, V. G. Zakrzewski, J. Gao, N. Rega, 
 G. Zheng, W. Liang, M. Hada, M. Ehara, K. Toyota, R. Fukuda, 
 J. Hasegawa, M. Ishida, T. Nakajima, Y. Honda, O. Kitao, H. Nakai, 
 T. Vreven, K. Throssell, J. A. Montgomery, Jr., J. E. Peralta, 
 F. Ogliaro, M. J. Bearpark, J. J. Heyd, E. N. Brothers, K. N. Kudin, 
 V. N. Staroverov, T. A. Keith, R. Kobayashi, J. Normand, 
 K. Raghavachari, A. P. Rendell, J. C. Burant, S. S. Iyengar, 
 J. Tomasi, M. Cossi, J. M. Millam, M. Klene, C. Adamo, R. Cammi, 
 J. W. Ochterski, R. L. Martin, K. Morokuma, O. Farkas, 
 J. B. Foresman, and D. J. Fox, Gaussian, Inc., Wallingford CT, 2019.
 
 ******************************************
 Gaussian 16:  ES64L-G16RevC.01  3-Jul-2019
                 3-May-2022 
 ******************************************
 %nprocshared=8
 Will use up to    8 processors via shared memory.
 %chk=C=C(C)C.chk
 ----------------------------------------------------------------------
 # opt freq=hinderedrotor B3LYP/6-31g(d,p) scf=fermi symm=veryloose pre
 ss=0.987
 ----------------------------------------------------------------------
 1/18=20,19=15,26=3,38=1,113=-987000/1,3;
 2/9=110,12=2,17=2,18=2,40=1/2;
 3/5=1,6=6,7=101,11=2,25=1,30=1,71=1,74=-5/1,2,3;
 4//1;
 5/5=2,22=13,38=5/2;
 6/7=2,8=2,9=2,10=2,28=1/1;
 7//1,2,3,16;
 1/18=20,19=15,26=3/3(2);
 2/9=110/2;
 99//99;
 2/9=110/2;
 3/5=1,6=6,7=101,11=2,25=1,30=1,71=1,74=-5/1,2,3;
 4/5=5,16=3,69=1/1;
 5/5=2,22=13,38=5/2;
 7//1,2,3,16;
 1/18=20,19=15,26=3/3(-5);
 2/9=110/2;
 6/7=2,8=2,9=2,10=2,19=2,28=1/1;
 99/9=1/99;
 ---------
 C=C(C)C_1
 ---------
 Symbolic Z-matrix:
 Charge =  0 Multiplicity = 1
 C                    -0.00144   1.39536  -0.00037 
 C                     0.        0.07233   0.00221 
 C                    -1.28574  -0.67872  -0.00038 
 C                     1.28715  -0.6765   -0.00057 
 H                     0.91397   1.95327  -0.00345 
 H                    -0.91883   1.95006   0.00015 
 H                    -1.12644  -1.74406  -0.17492 
 H                    -1.80112  -0.57004   0.95546 
 H                    -1.95052  -0.31178  -0.78439 
 H                     1.77177  -0.61211  -0.97629 
 H                     1.97565  -0.27294   0.74397 
 H                     1.13588  -1.73256   0.22892 
 

 GradGradGradGradGradGradGradGradGradGradGradGradGradGradGradGradGradGrad
 Berny optimization.
 Initialization pass.
                           ----------------------------
                           !    Initial Parameters    !
                           ! (Angstroms and Degrees)  !
 --------------------------                            --------------------------
 ! Name  Definition              Value          Derivative Info.                !
 --------------------------------------------------------------------------------
 ! R1    R(1,2)                  1.323          estimate D2E/DX2                !
 ! R2    R(1,5)                  1.072          estimate D2E/DX2                !
 ! R3    R(1,6)                  1.0721         estimate D2E/DX2                !
 ! R4    R(2,3)                  1.489          estimate D2E/DX2                !
 ! R5    R(2,4)                  1.4891         estimate D2E/DX2                !
 ! R6    R(3,7)                  1.0912         estimate D2E/DX2                !
 ! R7    R(3,8)                  1.0914         estimate D2E/DX2                !
 ! R8    R(3,9)                  1.0914         estimate D2E/DX2                !
 ! R9    R(4,10)                 1.0913         estimate D2E/DX2                !
 ! R10   R(4,11)                 1.0914         estimate D2E/DX2                !
 ! R11   R(4,12)                 1.0912         estimate D2E/DX2                !
 ! A1    A(2,1,5)              121.2988         estimate D2E/DX2                !
 ! A2    A(2,1,6)              121.2214         estimate D2E/DX2                !
 ! A3    A(5,1,6)              117.4798         estimate D2E/DX2                !
 ! A4    A(1,2,3)              120.2284         estimate D2E/DX2                !
 ! A5    A(1,2,4)              120.2518         estimate D2E/DX2                !
 ! A6    A(3,2,4)              119.5188         estimate D2E/DX2                !
 ! A7    A(2,3,7)              111.509          estimate D2E/DX2                !
 ! A8    A(2,3,8)              110.8549         estimate D2E/DX2                !
 ! A9    A(2,3,9)              110.9531         estimate D2E/DX2                !
 ! A10   A(7,3,8)              107.833          estimate D2E/DX2                !
 ! A11   A(7,3,9)              107.5925         estimate D2E/DX2                !
 ! A12   A(8,3,9)              107.9402         estimate D2E/DX2                !
 ! A13   A(2,4,10)             110.8442         estimate D2E/DX2                !
 ! A14   A(2,4,11)             110.9801         estimate D2E/DX2                !
 ! A15   A(2,4,12)             111.4964         estimate D2E/DX2                !
 ! A16   A(10,4,11)            107.9357         estimate D2E/DX2                !
 ! A17   A(10,4,12)            107.8591         estimate D2E/DX2                !
 ! A18   A(11,4,12)            107.567          estimate D2E/DX2                !
 ! D1    D(5,1,2,3)           -179.6942         estimate D2E/DX2                !
 ! D2    D(5,1,2,4)             -0.0637         estimate D2E/DX2                !
 ! D3    D(6,1,2,3)              0.2807         estimate D2E/DX2                !
 ! D4    D(6,1,2,4)            179.9112         estimate D2E/DX2                !
 ! D5    D(1,2,3,7)            169.9532         estimate D2E/DX2                !
 ! D6    D(1,2,3,8)            -69.8893         estimate D2E/DX2                !
 ! D7    D(1,2,3,9)             50.0339         estimate D2E/DX2                !
 ! D8    D(4,2,3,7)             -9.68           estimate D2E/DX2                !
 ! D9    D(4,2,3,8)            110.4775         estimate D2E/DX2                !
 ! D10   D(4,2,3,9)           -129.5993         estimate D2E/DX2                !
 ! D11   D(1,2,4,10)           -72.74           estimate D2E/DX2                !
 ! D12   D(1,2,4,11)            47.1883         estimate D2E/DX2                !
 ! D13   D(1,2,4,12)           167.0852         estimate D2E/DX2                !
 ! D14   D(3,2,4,10)           106.8931         estimate D2E/DX2                !
 ! D15   D(3,2,4,11)          -133.1786         estimate D2E/DX2                !
 ! D16   D(3,2,4,12)           -13.2817         estimate D2E/DX2                !
 --------------------------------------------------------------------------------
 Trust Radius=3.00D-01 FncErr=1.00D-07 GrdErr=1.00D-06 EigMax=2.50D+02 EigMin=1.00D-04
 Number of steps in this run=     55 maximum allowed number of steps=    100.
 GradGradGradGradGradGradGradGradGradGradGradGradGradGradGradGradGradGrad

                          Input orientation:                          
 ---------------------------------------------------------------------
 Center     Atomic      Atomic             Coordinates (Angstroms)
 Number     Number       Type             X           Y           Z
 ---------------------------------------------------------------------
      1          6           0       -0.001436    1.395358   -0.000367
      2          6           0        0.000001    0.072331    0.002209
      3          6           0       -1.285743   -0.678724   -0.000385
      4          6           0        1.287147   -0.676504   -0.000572
      5          1           0        0.913969    1.953266   -0.003453
      6          1           0       -0.918825    1.950058    0.000154
      7          1           0       -1.126441   -1.744064   -0.174923
      8          1           0       -1.801115   -0.570044    0.955464
      9          1           0       -1.950519   -0.311784   -0.784389
     10          1           0        1.771771   -0.612112   -0.976294
     11          1           0        1.975651   -0.272936    0.743968
     12          1           0        1.135879   -1.732558    0.228916
 ---------------------------------------------------------------------
                    Distance matrix (angstroms):
                    1          2          3          4          5
     1  C    0.000000
     2  C    1.323030   0.000000
     3  C    2.439521   1.489036   0.000000
     4  C    2.439889   1.489130   2.572891   0.000000
     5  H    1.072024   2.091240   3.430177   2.656117   0.000000
     6  H    1.072053   2.090480   2.654266   3.430036   1.832800
     7  H    3.339473   2.144654   1.091233   2.644899   4.226455
     8  H    2.831124   2.136670   1.091360   3.234610   3.828615
     9  H    2.707018   2.137945   1.091437   3.351100   3.734381
    10  H    2.850724   2.136610   3.210175   1.091348   2.874614
    11  H    2.691860   2.138366   3.369779   1.091442   2.577166
    12  H    3.336152   2.144584   2.650923   1.091236   3.699802
                    6          7          8          9         10
     6  H    0.000000
     7  H    3.704092   0.000000
     8  H    2.835836   1.763884   0.000000
     9  H    2.606881   1.761244   1.765250   0.000000
    10  H    3.841546   3.212965   4.061893   3.739314   0.000000
    11  H    3.724642   3.554089   3.794333   4.213335   1.765194
    12  H    4.223246   2.298110   3.241180   3.545594   1.764169
                   11         12
    11  H    0.000000
    12  H    1.760963   0.000000
 Stoichiometry    C4H8
 Framework group  C1[X(C4H8)]
 Deg. of freedom    30
 Full point group                 C1      NOp   1
 Largest Abelian subgroup         C1      NOp   1
 Largest concise Abelian subgroup C1      NOp   1
                         Standard orientation:                         
 ---------------------------------------------------------------------
 Center     Atomic      Atomic             Coordinates (Angstroms)
 Number     Number       Type             X           Y           Z
 ---------------------------------------------------------------------
      1          6           0        0.001312    1.416152    0.000203
      2          6           0       -0.000004    0.093125   -0.002373
      3          6           0        1.285808   -0.657813    0.000221
      4          6           0       -1.287081   -0.655827    0.000408
      5          1           0       -0.914143    1.973976    0.003290
      6          1           0        0.918651    1.970936   -0.000318
      7          1           0        1.126604   -1.723168    0.174759
      8          1           0        1.801171   -0.549085   -0.955628
      9          1           0        1.950551   -0.290812    0.784225
     10          1           0       -1.771711   -0.591479    0.976130
     11          1           0       -1.975622   -0.252322   -0.744132
     12          1           0       -1.135717   -1.711868   -0.229080
 ---------------------------------------------------------------------
 Rotational constants (GHZ):           9.6749564           8.2397989           4.7106166
 Standard basis: 6-31G(d,p) (6D, 7F)
 There are   100 symmetry adapted cartesian basis functions of A   symmetry.
 There are   100 symmetry adapted basis functions of A   symmetry.
   100 basis functions,   168 primitive gaussians,   100 cartesian basis functions
    16 alpha electrons       16 beta electrons
       nuclear repulsion energy       120.6754441434 Hartrees.
 NAtoms=   12 NActive=   12 NUniq=   12 SFac= 1.00D+00 NAtFMM=   60 NAOKFM=F Big=F
 Integral buffers will be    131072 words long.
 Raffenetti 2 integral format.
 Two-electron integral symmetry is turned on.
 One-electron integrals computed using PRISM.
 NBasis=   100 RedAO= T EigKep=  4.15D-03  NBF=   100
 NBsUse=   100 1.00D-06 EigRej= -1.00D+00 NBFU=   100
 ExpMin= 1.61D-01 ExpMax= 3.05D+03 ExpMxC= 4.57D+02 IAcc=3 IRadAn=         5 AccDes= 0.00D+00
 Harris functional with IExCor=  402 and IRadAn=       5 diagonalized for initial guess.
 HarFok:  IExCor=  402 AccDes= 0.00D+00 IRadAn=         5 IDoV= 1 UseB2=F ITyADJ=14
 ICtDFT=  3500011 ScaDFX=  1.000000  1.000000  1.000000  1.000000
 FoFCou: FMM=F IPFlag=           0 FMFlag=      100000 FMFlg1=           0
         NFxFlg=           0 DoJE=T BraDBF=F KetDBF=T FulRan=T
         wScrn=  0.000000 ICntrl=       500 IOpCl=  0 I1Cent=   200000004 NGrid=           0
         NMat0=    1 NMatS0=      1 NMatT0=    0 NMatD0=    1 NMtDS0=    0 NMtDT0=    0
 Petite list used in FoFCou.
 Keep R1 ints in memory in canonical form, NReq=20167911.
 Requested convergence on RMS density matrix=1.00D-08 within 128 cycles.
 Requested convergence on MAX density matrix=1.00D-06.
 Requested convergence on             energy=1.00D-06.
 Level shift goal  0.100 maximum shift  0.100.
 No special actions if energy rises.
 Dynamic level shift is on during FON iterations.
 Integral accuracy reduced to 1.0D-05 until final iterations.
 Initial convergence to 1.0D-05 achieved.  Increase integral accuracy.
 SCF Done:  E(RB3LYP) =  -157.229864016     A.U. after   12 cycles
            NFock= 12  Conv=0.19D-08     -V/T= 2.0089

 **********************************************************************

            Population analysis using the SCF Density.

 **********************************************************************

 Orbital symmetries:
       Occupied  (A) (A) (A) (A) (A) (A) (A) (A) (A) (A) (A) (A)
                 (A) (A) (A) (A)
       Virtual   (A) (A) (A) (A) (A) (A) (A) (A) (A) (A) (A) (A)
                 (A) (A) (A) (A) (A) (A) (A) (A) (A) (A) (A) (A)
                 (A) (A) (A) (A) (A) (A) (A) (A) (A) (A) (A) (A)
                 (A) (A) (A) (A) (A) (A) (A) (A) (A) (A) (A) (A)
                 (A) (A) (A) (A) (A) (A) (A) (A) (A) (A) (A) (A)
                 (A) (A) (A) (A) (A) (A) (A) (A) (A) (A) (A) (A)
                 (A) (A) (A) (A) (A) (A) (A) (A) (A) (A) (A) (A)
 The electronic state is 1-A.
 Alpha  occ. eigenvalues --  -10.18339 -10.17353 -10.17351 -10.15427  -0.80496
 Alpha  occ. eigenvalues --   -0.69310  -0.67222  -0.51814  -0.44764  -0.44127
 Alpha  occ. eigenvalues --   -0.42676  -0.39113  -0.36357  -0.35803  -0.33466
 Alpha  occ. eigenvalues --   -0.23203
 Alpha virt. eigenvalues --    0.02354   0.10182   0.14019   0.15120   0.16334
 Alpha virt. eigenvalues --    0.17256   0.18648   0.20434   0.21834   0.24578
 Alpha virt. eigenvalues --    0.32999   0.34622   0.51600   0.52744   0.52926
 Alpha virt. eigenvalues --    0.56327   0.60329   0.63903   0.66248   0.69053
 Alpha virt. eigenvalues --    0.71168   0.72269   0.78537   0.81716   0.84243
 Alpha virt. eigenvalues --    0.85959   0.88513   0.89365   0.90218   0.93515
 Alpha virt. eigenvalues --    0.95553   0.95941   1.13666   1.24460   1.26266
 Alpha virt. eigenvalues --    1.30873   1.37127   1.37975   1.47716   1.68525
 Alpha virt. eigenvalues --    1.69855   1.81094   1.82349   1.87517   1.91341
 Alpha virt. eigenvalues --    2.01135   2.03140   2.04553   2.05185   2.06207
 Alpha virt. eigenvalues --    2.06743   2.09794   2.14040   2.17760   2.19547
 Alpha virt. eigenvalues --    2.29380   2.31608   2.35723   2.40214   2.48194
 Alpha virt. eigenvalues --    2.49641   2.63077   2.63281   2.66932   2.67397
 Alpha virt. eigenvalues --    2.74124   2.81861   2.84060   2.90535   2.92119
 Alpha virt. eigenvalues --    2.95825   3.12239   3.18458   3.22649   3.40273
 Alpha virt. eigenvalues --    3.42995   3.44021   3.44962   3.47488   3.67340
 Alpha virt. eigenvalues --    4.18671   4.33723   4.49415   4.65561
          Condensed to atoms (all electrons):
               1          2          3          4          5          6
     1  C    4.963979   0.700982  -0.062785  -0.062184   0.373773   0.374149
     2  C    0.700982   4.615840   0.386015   0.387232  -0.028796  -0.029471
     3  C   -0.062785   0.386015   4.987718  -0.071699   0.006988  -0.012528
     4  C   -0.062184   0.387232  -0.071699   4.986195  -0.012609   0.007015
     5  H    0.373773  -0.028796   0.006988  -0.012609   0.622930  -0.047575
     6  H    0.374149  -0.029471  -0.012528   0.007015  -0.047575   0.623377
     7  H    0.005391  -0.028722   0.374433  -0.008574  -0.000266   0.000134
     8  H   -0.007686  -0.029108   0.378742   0.003399  -0.000137   0.001657
     9  H   -0.009714  -0.030207   0.382295   0.004795  -0.000063   0.003150
    10  H   -0.007654  -0.029787   0.003340   0.378893   0.001471  -0.000150
    11  H   -0.009592  -0.029952   0.004874   0.382010   0.003455  -0.000054
    12  H    0.005311  -0.028594  -0.008521   0.374057   0.000138  -0.000266
               7          8          9         10         11         12
     1  C    0.005391  -0.007686  -0.009714  -0.007654  -0.009592   0.005311
     2  C   -0.028722  -0.029108  -0.030207  -0.029787  -0.029952  -0.028594
     3  C    0.374433   0.378742   0.382295   0.003340   0.004874  -0.008521
     4  C   -0.008574   0.003399   0.004795   0.378893   0.382010   0.374057
     5  H   -0.000266  -0.000137  -0.000063   0.001471   0.003455   0.000138
     6  H    0.000134   0.001657   0.003150  -0.000150  -0.000054  -0.000266
     7  H    0.612590  -0.031317  -0.030681   0.000512   0.000051   0.005273
     8  H   -0.031317   0.586492  -0.027725  -0.000110  -0.000288   0.000517
     9  H   -0.030681  -0.027725   0.587060  -0.000271  -0.000125   0.000027
    10  H    0.000512  -0.000110  -0.000271   0.587685  -0.027747  -0.031751
    11  H    0.000051  -0.000288  -0.000125  -0.027747   0.587511  -0.030627
    12  H    0.005273   0.000517   0.000027  -0.031751  -0.030627   0.613130
 Mulliken charges:
               1
     1  C   -0.263971
     2  C    0.144567
     3  C   -0.368874
     4  C   -0.368530
     5  H    0.080691
     6  H    0.080560
     7  H    0.101175
     8  H    0.125563
     9  H    0.121460
    10  H    0.125569
    11  H    0.120484
    12  H    0.101306
 Sum of Mulliken charges =  -0.00000
 Mulliken charges with hydrogens summed into heavy atoms:
               1
     1  C   -0.102720
     2  C    0.144567
     3  C   -0.020676
     4  C   -0.021171
 Electronic spatial extent (au):  <R**2>=            319.3455
 Charge=             -0.0000 electrons
 Dipole moment (field-independent basis, Debye):
    X=              0.0040    Y=             -0.4990    Z=              0.0082  Tot=              0.4991
 Quadrupole moment (field-independent basis, Debye-Ang):
   XX=            -25.1888   YY=            -26.2105   ZZ=            -27.2611
   XY=              0.0002   XZ=             -0.0586   YZ=              0.0037
 Traceless Quadrupole moment (field-independent basis, Debye-Ang):
   XX=              1.0313   YY=              0.0096   ZZ=             -1.0410
   XY=              0.0002   XZ=             -0.0586   YZ=              0.0037
 Octapole moment (field-independent basis, Debye-Ang**2):
  XXX=              0.0137  YYY=             -0.6545  ZZZ=              0.0871  XYY=             -0.0224
  XXY=              1.6616  XXZ=             -0.0201  XZZ=              0.0321  YZZ=             -1.5210
  YYZ=             -0.0304  XYZ=              0.2460
 Hexadecapole moment (field-independent basis, Debye-Ang**3):
 XXXX=           -212.4636 YYYY=           -178.6089 ZZZZ=            -41.2566 XXXY=             -0.0474
 XXXZ=              0.6525 YYYX=             -0.0195 YYYZ=              0.1469 ZZZX=             -1.0836
 ZZZY=             -0.0623 XXYY=            -65.4302 XXZZ=            -39.1595 YYZZ=            -40.2832
 XXYZ=             -0.0839 YYXZ=              0.2031 ZZXY=              0.0426
 N-N= 1.206754441434D+02 E-N=-6.045287417376D+02  KE= 1.558433286077D+02
 Calling FoFJK, ICntrl=      2127 FMM=F ISym2X=0 I1Cent= 0 IOpClX= 0 NMat=1 NMatS=1 NMatT=0.
 ***** Axes restored to original set *****
 -------------------------------------------------------------------
 Center     Atomic                   Forces (Hartrees/Bohr)
 Number     Number              X              Y              Z
 -------------------------------------------------------------------
      1        6          -0.000045521    0.006791657    0.000246160
      2        6           0.000363544    0.004710193   -0.000204425
      3        6          -0.007775082   -0.009671127   -0.002763239
      4        6           0.007714230   -0.009170310    0.003272290
      5        1           0.008088555    0.006948265    0.000887484
      6        1          -0.008102202    0.007009228   -0.000868200
      7        1          -0.001639961   -0.002259003    0.000002118
      8        1          -0.002753703   -0.001295239    0.002396334
      9        1          -0.003181864    0.000364494   -0.000127494
     10        1           0.002633824   -0.001651685   -0.002663795
     11        1           0.003105646    0.000561664   -0.000190232
     12        1           0.001592534   -0.002338137    0.000012999
 -------------------------------------------------------------------
 Cartesian Forces:  Max     0.009671127 RMS     0.004353569

 GradGradGradGradGradGradGradGradGradGradGradGradGradGradGradGradGradGrad
 Berny optimization.
 FormGI is forming the generalized inverse of G from B-inverse, IUseBI=4.
 Internal  Forces:  Max     0.020748646 RMS     0.005915203
 Search for a local minimum.
 Step number   1 out of a maximum of   55
 All quantities printed in internal units (Hartrees-Bohrs-Radians)
 Mixed Optimization -- RFO/linear search
 Second derivative matrix not updated -- first step.
 ITU=  0
     Eigenvalues ---    0.00910   0.00911   0.01466   0.03107   0.03107
     Eigenvalues ---    0.07269   0.07269   0.07328   0.07330   0.16000
     Eigenvalues ---    0.16000   0.16000   0.16000   0.16000   0.16000
     Eigenvalues ---    0.16000   0.16000   0.24999   0.25000   0.33545
     Eigenvalues ---    0.33555   0.34647   0.34647   0.34656   0.34657
     Eigenvalues ---    0.34670   0.34670   0.36972   0.36975   0.61183
 RFO step:  Lambda=-4.66456610D-03 EMin= 9.09741518D-03
 Linear search not attempted -- first point.
 Iteration  1 RMS(Cart)=  0.04790760 RMS(Int)=  0.00079402
 Iteration  2 RMS(Cart)=  0.00095621 RMS(Int)=  0.00004829
 Iteration  3 RMS(Cart)=  0.00000057 RMS(Int)=  0.00004828
 Variable       Old X    -DE/DX   Delta X   Delta X   Delta X     New X
                                 (Linear)    (Quad)   (Total)
    R1        2.50016   0.02075   0.00000   0.03366   0.03366   2.53382
    R2        2.02583   0.01052   0.00000   0.02810   0.02810   2.05393
    R3        2.02589   0.01056   0.00000   0.02821   0.02821   2.05409
    R4        2.81387   0.01974   0.00000   0.05803   0.05803   2.87190
    R5        2.81405   0.01934   0.00000   0.05686   0.05686   2.87091
    R6        2.06213   0.00197   0.00000   0.00559   0.00559   2.06773
    R7        2.06237   0.00327   0.00000   0.00931   0.00931   2.07168
    R8        2.06252   0.00215   0.00000   0.00613   0.00613   2.06865
    R9        2.06235   0.00345   0.00000   0.00983   0.00983   2.07218
   R10        2.06253   0.00204   0.00000   0.00580   0.00580   2.06833
   R11        2.06214   0.00204   0.00000   0.00582   0.00582   2.06796
    A1        2.11706   0.00111   0.00000   0.00672   0.00672   2.12378
    A2        2.11571   0.00128   0.00000   0.00776   0.00776   2.12348
    A3        2.05041  -0.00238   0.00000  -0.01448  -0.01448   2.03593
    A4        2.09838   0.00304   0.00000   0.01195   0.01195   2.11033
    A5        2.09879   0.00297   0.00000   0.01167   0.01167   2.11046
    A6        2.08600  -0.00601   0.00000  -0.02360  -0.02360   2.06239
    A7        1.94620   0.00207   0.00000   0.01359   0.01350   1.95970
    A8        1.93478   0.00167   0.00000   0.00822   0.00818   1.94297
    A9        1.93650   0.00198   0.00000   0.01297   0.01288   1.94937
   A10        1.88204  -0.00231   0.00000  -0.01578  -0.01581   1.86623
   A11        1.87784  -0.00146   0.00000  -0.00523  -0.00538   1.87247
   A12        1.88391  -0.00229   0.00000  -0.01582  -0.01585   1.86806
   A13        1.93460   0.00170   0.00000   0.00810   0.00807   1.94267
   A14        1.93697   0.00185   0.00000   0.01254   0.01244   1.94941
   A15        1.94598   0.00204   0.00000   0.01330   0.01321   1.95919
   A16        1.88383  -0.00221   0.00000  -0.01520  -0.01523   1.86861
   A17        1.88250  -0.00243   0.00000  -0.01711  -0.01714   1.86536
   A18        1.87740  -0.00128   0.00000  -0.00362  -0.00377   1.87363
    D1       -3.13626  -0.00081   0.00000  -0.02381  -0.02383   3.12309
    D2       -0.00111  -0.00078   0.00000  -0.02072  -0.02070  -0.02181
    D3        0.00490  -0.00077   0.00000  -0.02259  -0.02262  -0.01772
    D4        3.14004  -0.00073   0.00000  -0.01950  -0.01948   3.12056
    D5        2.96624  -0.00011   0.00000  -0.03433  -0.03429   2.93195
    D6       -1.21980  -0.00052   0.00000  -0.03964  -0.03965  -1.25945
    D7        0.87326  -0.00098   0.00000  -0.04555  -0.04561   0.82765
    D8       -0.16895  -0.00018   0.00000  -0.03752  -0.03747  -0.20642
    D9        1.92820  -0.00059   0.00000  -0.04284  -0.04283   1.88537
   D10       -2.26193  -0.00105   0.00000  -0.04875  -0.04879  -2.31072
   D11       -1.26955  -0.00080   0.00000  -0.05455  -0.05454  -1.32410
   D12        0.82359  -0.00123   0.00000  -0.06004  -0.06008   0.76351
   D13        2.91619  -0.00024   0.00000  -0.04727  -0.04721   2.86898
   D14        1.86564  -0.00073   0.00000  -0.05135  -0.05136   1.81427
   D15       -2.32440  -0.00116   0.00000  -0.05684  -0.05690  -2.38130
   D16       -0.23181  -0.00017   0.00000  -0.04407  -0.04403  -0.27584
         Item               Value     Threshold  Converged?
 Maximum Force            0.020749     0.000450     NO 
 RMS     Force            0.005915     0.000300     NO 
 Maximum Displacement     0.125288     0.001800     NO 
 RMS     Displacement     0.047981     0.001200     NO 
 Predicted change in Energy=-2.429709D-03
 GradGradGradGradGradGradGradGradGradGradGradGradGradGradGradGradGradGrad

                          Input orientation:                          
 ---------------------------------------------------------------------
 Center     Atomic      Atomic             Coordinates (Angstroms)
 Number     Number       Type             X           Y           Z
 ---------------------------------------------------------------------
      1          6           0       -0.001312    1.431544    0.001513
      2          6           0        0.000154    0.090706    0.001115
      3          6           0       -1.302807   -0.691469   -0.009684
      4          6           0        1.304306   -0.688512    0.007131
      5          1           0        0.922638    2.003416    0.026284
      6          1           0       -0.926777    2.001171   -0.022206
      7          1           0       -1.147128   -1.754021   -0.219462
      8          1           0       -1.813484   -0.628711    0.958363
      9          1           0       -1.997818   -0.309401   -0.764211
     10          1           0        1.779049   -0.678411   -0.981272
     11          1           0        2.025050   -0.265538    0.713938
     12          1           0        1.158467   -1.738486    0.278819
 ---------------------------------------------------------------------
                    Distance matrix (angstroms):
                    1          2          3          4          5
     1  C    0.000000
     2  C    1.340840   0.000000
     3  C    2.490221   1.519744   0.000000
     4  C    2.489842   1.519220   2.607169   0.000000
     5  H    1.086893   2.123694   3.495184   2.718918   0.000000
     6  H    1.086978   2.123587   2.718799   3.494709   1.850052
     7  H    3.392573   2.183558   1.094194   2.682570   4.296820
     8  H    2.905888   2.173285   1.096287   3.260220   3.909378
     9  H    2.757401   2.176626   1.094681   3.412143   3.808291
    10  H    2.930438   2.172808   3.231407   1.096551   2.990119
    11  H    2.737478   2.176059   3.432154   1.094512   2.614639
    12  H    3.386898   2.182831   2.690232   1.094316   3.757821
                    6          7          8          9         10
     6  H    0.000000
     7  H    3.766820   0.000000
     8  H    2.943475   1.760007   0.000000
     9  H    2.652630   1.762769   1.761590   0.000000
    10  H    3.927017   3.209330   4.083007   3.801054   0.000000
    11  H    3.793832   3.626228   3.863417   4.286061   1.762021
    12  H    4.292306   2.358875   3.244360   3.618333   1.759747
                   11         12
    11  H    0.000000
    12  H    1.763483   0.000000
 Stoichiometry    C4H8
 Framework group  C1[X(C4H8)]
 Deg. of freedom    30
 Full point group                 C1      NOp   1
 Largest Abelian subgroup         C1      NOp   1
 Largest concise Abelian subgroup C1      NOp   1
                         Standard orientation:                         
 ---------------------------------------------------------------------
 Center     Atomic      Atomic             Coordinates (Angstroms)
 Number     Number       Type             X           Y           Z
 ---------------------------------------------------------------------
      1          6           0       -0.001375    1.447682    0.000236
      2          6           0       -0.000301    0.106844   -0.001254
      3          6           0        1.304180   -0.672867   -0.000194
      4          6           0       -1.302988   -0.674843    0.000268
      5          1           0       -0.926550    2.017831   -0.017604
      6          1           0        0.923147    2.019033    0.018628
      7          1           0        1.151905   -1.736006    0.209106
      8          1           0        1.808310   -0.607781   -0.971514
      9          1           0        2.003453   -0.290537    0.750250
     10          1           0       -1.771188   -0.667031    0.991809
     11          1           0       -2.029201   -0.252249   -0.701149
     12          1           0       -1.156967   -1.724156   -0.273865
 ---------------------------------------------------------------------
 Rotational constants (GHZ):           9.2733402           8.0254043           4.5439949
 Standard basis: 6-31G(d,p) (6D, 7F)
 There are   100 symmetry adapted cartesian basis functions of A   symmetry.
 There are   100 symmetry adapted basis functions of A   symmetry.
   100 basis functions,   168 primitive gaussians,   100 cartesian basis functions
    16 alpha electrons       16 beta electrons
       nuclear repulsion energy       118.8544317621 Hartrees.
 NAtoms=   12 NActive=   12 NUniq=   12 SFac= 1.00D+00 NAtFMM=   60 NAOKFM=F Big=F
 Integral buffers will be    131072 words long.
 Raffenetti 2 integral format.
 Two-electron integral symmetry is turned on.
 One-electron integrals computed using PRISM.
 NBasis=   100 RedAO= T EigKep=  4.50D-03  NBF=   100
 NBsUse=   100 1.00D-06 EigRej= -1.00D+00 NBFU=   100
 Initial guess from the checkpoint file:  "C=C(C)C.chk"
 B after Tr=     0.000000   -0.000000   -0.000000
         Rot=    0.999998   -0.000453   -0.002006   -0.000877 Ang=  -0.26 deg.
 ExpMin= 1.61D-01 ExpMax= 3.05D+03 ExpMxC= 4.57D+02 IAcc=3 IRadAn=         5 AccDes= 0.00D+00
 Harris functional with IExCor=  402 and IRadAn=       5 diagonalized for initial guess.
 HarFok:  IExCor=  402 AccDes= 0.00D+00 IRadAn=         5 IDoV= 1 UseB2=F ITyADJ=14
 ICtDFT=  3500011 ScaDFX=  1.000000  1.000000  1.000000  1.000000
 FoFCou: FMM=F IPFlag=           0 FMFlag=      100000 FMFlg1=           0
         NFxFlg=           0 DoJE=T BraDBF=F KetDBF=T FulRan=T
         wScrn=  0.000000 ICntrl=       500 IOpCl=  0 I1Cent=   200000004 NGrid=           0
         NMat0=    1 NMatS0=      1 NMatT0=    0 NMatD0=    1 NMtDS0=    0 NMtDT0=    0
 Petite list used in FoFCou.
 Keep R1 ints in memory in canonical form, NReq=20167911.
 Requested convergence on RMS density matrix=1.00D-08 within 128 cycles.
 Requested convergence on MAX density matrix=1.00D-06.
 Requested convergence on             energy=1.00D-06.
 Level shift goal  0.100 maximum shift  0.100.
 No special actions if energy rises.
 Dynamic level shift is on during FON iterations.
 Integral accuracy reduced to 1.0D-05 until final iterations.
 Initial convergence to 1.0D-05 achieved.  Increase integral accuracy.
 SCF Done:  E(RB3LYP) =  -157.232189050     A.U. after   11 cycles
            NFock= 11  Conv=0.23D-08     -V/T= 2.0105
 Calling FoFJK, ICntrl=      2127 FMM=F ISym2X=0 I1Cent= 0 IOpClX= 0 NMat=1 NMatS=1 NMatT=0.
 ***** Axes restored to original set *****
 -------------------------------------------------------------------
 Center     Atomic                   Forces (Hartrees/Bohr)
 Number     Number              X              Y              Z
 -------------------------------------------------------------------
      1        6          -0.000041270   -0.004824091    0.000216738
      2        6           0.000138940    0.004786796   -0.000016377
      3        6           0.000234756   -0.001184935   -0.001657515
      4        6          -0.000291535   -0.000997829    0.001639227
      5        1          -0.000196713   -0.000042593    0.000165719
      6        1           0.000217737   -0.000020967   -0.000186023
      7        1           0.000865960    0.000390176   -0.000448009
      8        1           0.000636861   -0.000150631    0.000645611
      9        1          -0.000094418    0.000964730    0.000481445
     10        1          -0.000722090   -0.000363326   -0.000700977
     11        1           0.000083656    0.001046574   -0.000669760
     12        1          -0.000831884    0.000396095    0.000529921
 -------------------------------------------------------------------
 Cartesian Forces:  Max     0.004824091 RMS     0.001305150

 GradGradGradGradGradGradGradGradGradGradGradGradGradGradGradGradGradGrad
 Berny optimization.
 Using GEDIIS/GDIIS optimizer.
 FormGI is forming the generalized inverse of G from B-inverse, IUseBI=4.
 Internal  Forces:  Max     0.004887567 RMS     0.001030572
 Search for a local minimum.
 Step number   2 out of a maximum of   55
 All quantities printed in internal units (Hartrees-Bohrs-Radians)
 Mixed Optimization -- RFO/linear search
 Update second derivatives using D2CorX and points    1    2
 DE= -2.33D-03 DEPred=-2.43D-03 R= 9.57D-01
 TightC=F SS=  1.41D+00  RLast= 2.04D-01 DXNew= 5.0454D-01 6.1210D-01
 Trust test= 9.57D-01 RLast= 2.04D-01 DXMaxT set to 5.05D-01
 ITU=  1  0
 Use linear search instead of GDIIS.
     Eigenvalues ---    0.00803   0.00911   0.01482   0.03100   0.03107
     Eigenvalues ---    0.07082   0.07113   0.07228   0.07231   0.15938
     Eigenvalues ---    0.16000   0.16000   0.16000   0.16000   0.16000
     Eigenvalues ---    0.16000   0.16610   0.24179   0.25000   0.33548
     Eigenvalues ---    0.34568   0.34637   0.34647   0.34654   0.34657
     Eigenvalues ---    0.34670   0.35600   0.36974   0.37487   0.66819
 RFO step:  Lambda=-7.77521426D-04 EMin= 8.03463545D-03
 Quartic linear search produced a step of  0.01698.
 Iteration  1 RMS(Cart)=  0.05435737 RMS(Int)=  0.00191880
 Iteration  2 RMS(Cart)=  0.00202054 RMS(Int)=  0.00000576
 Iteration  3 RMS(Cart)=  0.00000229 RMS(Int)=  0.00000549
 Iteration  4 RMS(Cart)=  0.00000000 RMS(Int)=  0.00000549
 Variable       Old X    -DE/DX   Delta X   Delta X   Delta X     New X
                                 (Linear)    (Quad)   (Total)
    R1        2.53382  -0.00489   0.00057  -0.00443  -0.00386   2.52996
    R2        2.05393  -0.00019   0.00048   0.00252   0.00300   2.05693
    R3        2.05409  -0.00019   0.00048   0.00251   0.00299   2.05708
    R4        2.87190  -0.00141   0.00099   0.00201   0.00300   2.87490
    R5        2.87091  -0.00155   0.00097   0.00147   0.00243   2.87334
    R6        2.06773  -0.00017   0.00009   0.00011   0.00020   2.06793
    R7        2.07168   0.00026   0.00016   0.00177   0.00193   2.07361
    R8        2.06865   0.00006   0.00010   0.00085   0.00095   2.06960
    R9        2.07218   0.00032   0.00017   0.00198   0.00214   2.07432
   R10        2.06833   0.00003   0.00010   0.00070   0.00080   2.06913
   R11        2.06796  -0.00014   0.00010   0.00023   0.00033   2.06828
    A1        2.12378   0.00002   0.00011   0.00088   0.00099   2.12477
    A2        2.12348   0.00008   0.00013   0.00136   0.00149   2.12497
    A3        2.03593  -0.00011  -0.00025  -0.00224  -0.00249   2.03344
    A4        2.11033   0.00102   0.00020   0.00540   0.00560   2.11593
    A5        2.11046   0.00103   0.00020   0.00540   0.00560   2.11605
    A6        2.06239  -0.00205  -0.00040  -0.01080  -0.01120   2.05119
    A7        1.95970  -0.00106   0.00023  -0.00516  -0.00494   1.95476
    A8        1.94297  -0.00063   0.00014  -0.00379  -0.00366   1.93931
    A9        1.94937  -0.00024   0.00022   0.00047   0.00069   1.95007
   A10        1.86623   0.00073  -0.00027   0.00172   0.00144   1.86767
   A11        1.87247   0.00092  -0.00009   0.00646   0.00636   1.87883
   A12        1.86806   0.00044  -0.00027   0.00094   0.00067   1.86873
   A13        1.94267  -0.00062   0.00014  -0.00380  -0.00367   1.93899
   A14        1.94941  -0.00028   0.00021   0.00031   0.00052   1.94992
   A15        1.95919  -0.00105   0.00022  -0.00510  -0.00488   1.95431
   A16        1.86861   0.00047  -0.00026   0.00119   0.00093   1.86954
   A17        1.86536   0.00066  -0.00029   0.00094   0.00063   1.86599
   A18        1.87363   0.00097  -0.00006   0.00710   0.00704   1.88066
    D1        3.12309  -0.00015  -0.00040  -0.00721  -0.00762   3.11548
    D2       -0.02181  -0.00015  -0.00035  -0.00702  -0.00737  -0.02918
    D3       -0.01772  -0.00016  -0.00038  -0.00766  -0.00805  -0.02576
    D4        3.12056  -0.00017  -0.00033  -0.00747  -0.00780   3.11276
    D5        2.93195  -0.00048  -0.00058  -0.06753  -0.06812   2.86383
    D6       -1.25945  -0.00072  -0.00067  -0.07150  -0.07217  -1.33161
    D7        0.82765  -0.00075  -0.00077  -0.07257  -0.07334   0.75431
    D8       -0.20642  -0.00048  -0.00064  -0.06774  -0.06839  -0.27481
    D9        1.88537  -0.00072  -0.00073  -0.07171  -0.07243   1.81293
   D10       -2.31072  -0.00075  -0.00083  -0.07278  -0.07361  -2.38433
   D11       -1.32410  -0.00088  -0.00093  -0.08756  -0.08848  -1.41257
   D12        0.76351  -0.00090  -0.00102  -0.08842  -0.08944   0.67408
   D13        2.86898  -0.00059  -0.00080  -0.08263  -0.08344   2.78553
   D14        1.81427  -0.00088  -0.00087  -0.08734  -0.08821   1.72606
   D15       -2.38130  -0.00090  -0.00097  -0.08820  -0.08917  -2.47047
   D16       -0.27584  -0.00059  -0.00075  -0.08242  -0.08318  -0.35902
         Item               Value     Threshold  Converged?
 Maximum Force            0.004888     0.000450     NO 
 RMS     Force            0.001031     0.000300     NO 
 Maximum Displacement     0.170218     0.001800     NO 
 RMS     Displacement     0.054401     0.001200     NO 
 Predicted change in Energy=-4.135766D-04
 GradGradGradGradGradGradGradGradGradGradGradGradGradGradGradGradGradGrad

                          Input orientation:                          
 ---------------------------------------------------------------------
 Center     Atomic      Atomic             Coordinates (Angstroms)
 Number     Number       Type             X           Y           Z
 ---------------------------------------------------------------------
      1          6           0       -0.001331    1.435830    0.004690
      2          6           0        0.000243    0.097036    0.001495
      3          6           0       -1.299426   -0.693297   -0.024580
      4          6           0        1.301037   -0.690076    0.019806
      5          1           0        0.922755    2.009437    0.047434
      6          1           0       -0.926736    2.007686   -0.034994
      7          1           0       -1.137606   -1.739315   -0.302352
      8          1           0       -1.781576   -0.693824    0.961127
      9          1           0       -2.017992   -0.268775   -0.733716
     10          1           0        1.738263   -0.754110   -0.985006
     11          1           0        2.049184   -0.221448    0.667531
     12          1           0        1.153524   -1.716859    0.368895
 ---------------------------------------------------------------------
                    Distance matrix (angstroms):
                    1          2          3          4          5
     1  C    0.000000
     2  C    1.338800   0.000000
     3  C    2.493811   1.521330   0.000000
     4  C    2.493165   1.520508   2.600844   0.000000
     5  H    1.088479   2.123775   3.499721   2.726029   0.000000
     6  H    1.088562   2.123960   2.726594   3.499127   1.851327
     7  H    3.386287   2.181560   1.094302   2.674260   4.291920
     8  H    2.935893   2.172839   1.097309   3.223135   3.931394
     9  H    2.741869   2.178905   1.095185   3.429467   3.801110
    10  H    2.966736   2.172175   3.186482   1.097685   3.060748
    11  H    2.718555   2.177888   3.451789   1.094936   2.574919
    12  H    3.377245   2.180654   2.686906   1.094489   3.747249
                    6          7          8          9         10
     6  H    0.000000
     7  H    3.762440   0.000000
     8  H    3.003525   1.761853   0.000000
     9  H    2.619413   1.767383   1.763250   0.000000
    10  H    3.953764   3.115648   4.022478   3.795807   0.000000
    11  H    3.784003   3.660631   3.870925   4.302052   1.763882
    12  H    4.285188   2.387541   3.164198   3.656667   1.761207
                   11         12
    11  H    0.000000
    12  H    1.768515   0.000000
 Stoichiometry    C4H8
 Framework group  C1[X(C4H8)]
 Deg. of freedom    30
 Full point group                 C1      NOp   1
 Largest Abelian subgroup         C1      NOp   1
 Largest concise Abelian subgroup C1      NOp   1
                         Standard orientation:                         
 ---------------------------------------------------------------------
 Center     Atomic      Atomic             Coordinates (Angstroms)
 Number     Number       Type             X           Y           Z
 ---------------------------------------------------------------------
      1          6           0       -0.002368    1.450845    0.000198
      2          6           0       -0.000464    0.112047   -0.001188
      3          6           0        1.301477   -0.674967   -0.000077
      4          6           0       -1.299364   -0.678397    0.000054
      5          1           0       -0.928514    2.022175   -0.024753
      6          1           0        0.922115    2.024980    0.026009
      7          1           0        1.147112   -1.722342    0.276822
      8          1           0        1.766680   -0.670884   -0.993886
      9          1           0        2.030991   -0.250979    0.698116
     10          1           0       -1.719158   -0.746988    1.011973
     11          1           0       -2.059687   -0.209529   -0.633158
     12          1           0       -1.155224   -1.703598   -0.355040
 ---------------------------------------------------------------------
 Rotational constants (GHZ):           9.2235007           8.0642974           4.5445968
 Standard basis: 6-31G(d,p) (6D, 7F)
 There are   100 symmetry adapted cartesian basis functions of A   symmetry.
 There are   100 symmetry adapted basis functions of A   symmetry.
   100 basis functions,   168 primitive gaussians,   100 cartesian basis functions
    16 alpha electrons       16 beta electrons
       nuclear repulsion energy       118.8378507443 Hartrees.
 NAtoms=   12 NActive=   12 NUniq=   12 SFac= 1.00D+00 NAtFMM=   60 NAOKFM=F Big=F
 Integral buffers will be    131072 words long.
 Raffenetti 2 integral format.
 Two-electron integral symmetry is turned on.
 One-electron integrals computed using PRISM.
 NBasis=   100 RedAO= T EigKep=  4.36D-03  NBF=   100
 NBsUse=   100 1.00D-06 EigRej= -1.00D+00 NBFU=   100
 Initial guess from the checkpoint file:  "C=C(C)C.chk"
 B after Tr=     0.000000    0.000000    0.000000
         Rot=    0.999995   -0.000580   -0.003112   -0.000329 Ang=  -0.36 deg.
 ExpMin= 1.61D-01 ExpMax= 3.05D+03 ExpMxC= 4.57D+02 IAcc=3 IRadAn=         5 AccDes= 0.00D+00
 Harris functional with IExCor=  402 and IRadAn=       5 diagonalized for initial guess.
 HarFok:  IExCor=  402 AccDes= 0.00D+00 IRadAn=         5 IDoV= 1 UseB2=F ITyADJ=14
 ICtDFT=  3500011 ScaDFX=  1.000000  1.000000  1.000000  1.000000
 FoFCou: FMM=F IPFlag=           0 FMFlag=      100000 FMFlg1=           0
         NFxFlg=           0 DoJE=T BraDBF=F KetDBF=T FulRan=T
         wScrn=  0.000000 ICntrl=       500 IOpCl=  0 I1Cent=   200000004 NGrid=           0
         NMat0=    1 NMatS0=      1 NMatT0=    0 NMatD0=    1 NMtDS0=    0 NMtDT0=    0
 Petite list used in FoFCou.
 Keep R1 ints in memory in canonical form, NReq=20167911.
 Requested convergence on RMS density matrix=1.00D-08 within 128 cycles.
 Requested convergence on MAX density matrix=1.00D-06.
 Requested convergence on             energy=1.00D-06.
 Level shift goal  0.100 maximum shift  0.100.
 No special actions if energy rises.
 Dynamic level shift is on during FON iterations.
 Integral accuracy reduced to 1.0D-05 until final iterations.
 Initial convergence to 1.0D-05 achieved.  Increase integral accuracy.
 SCF Done:  E(RB3LYP) =  -157.233011476     A.U. after   10 cycles
            NFock= 10  Conv=0.41D-08     -V/T= 2.0106
 Calling FoFJK, ICntrl=      2127 FMM=F ISym2X=0 I1Cent= 0 IOpClX= 0 NMat=1 NMatS=1 NMatT=0.
 ***** Axes restored to original set *****
 -------------------------------------------------------------------
 Center     Atomic                   Forces (Hartrees/Bohr)
 Number     Number              X              Y              Z
 -------------------------------------------------------------------
      1        6           0.000001430   -0.001635980    0.000173781
      2        6           0.000170703    0.001148035   -0.000034830
      3        6           0.000931875    0.000470201   -0.001600574
      4        6          -0.001020145    0.000694463    0.001455683
      5        1          -0.001015102   -0.000727874    0.000046169
      6        1           0.001011626   -0.000718311   -0.000054451
      7        1           0.000354553    0.000414207   -0.000651278
      8        1           0.000958625   -0.000536791    0.000220223
      9        1           0.000234010    0.000560585    0.000840988
     10        1          -0.001066648   -0.000679402   -0.000204205
     11        1          -0.000233731    0.000576558   -0.000951471
     12        1          -0.000327195    0.000434309    0.000759966
 -------------------------------------------------------------------
 Cartesian Forces:  Max     0.001635980 RMS     0.000769431

 GradGradGradGradGradGradGradGradGradGradGradGradGradGradGradGradGradGrad
 Berny optimization.
 Using GEDIIS/GDIIS optimizer.
 FormGI is forming the generalized inverse of G from B-inverse, IUseBI=4.
 Internal  Forces:  Max     0.003081758 RMS     0.000959317
 Search for a local minimum.
 Step number   3 out of a maximum of   55
 All quantities printed in internal units (Hartrees-Bohrs-Radians)
 Mixed Optimization -- En-DIIS/RFO-DIIS
 Update second derivatives using D2CorX and points    1    2    3
 DE= -8.22D-04 DEPred=-4.14D-04 R= 1.99D+00
 TightC=F SS=  1.41D+00  RLast= 2.77D-01 DXNew= 8.4853D-01 8.3069D-01
 Trust test= 1.99D+00 RLast= 2.77D-01 DXMaxT set to 8.31D-01
 ITU=  1  1  0
 Use linear search instead of GDIIS.
     Eigenvalues ---   -0.00210   0.00903   0.01490   0.03024   0.03107
     Eigenvalues ---    0.06785   0.07134   0.07241   0.07267   0.12106
     Eigenvalues ---    0.15982   0.16000   0.16000   0.16000   0.16000
     Eigenvalues ---    0.16000   0.16087   0.22283   0.25000   0.32056
     Eigenvalues ---    0.33549   0.34545   0.34635   0.34647   0.34657
     Eigenvalues ---    0.34670   0.34761   0.36188   0.36974   0.58270
 RFO step:  Lambda=-4.35163636D-03 EMin=-2.10097093D-03
 Skip linear search -- no minimum in search direction.
 Iteration  1 RMS(Cart)=  0.13609365 RMS(Int)=  0.04900268
 Iteration  2 RMS(Cart)=  0.06406202 RMS(Int)=  0.00276111
 Iteration  3 RMS(Cart)=  0.00287751 RMS(Int)=  0.00001521
 Iteration  4 RMS(Cart)=  0.00000472 RMS(Int)=  0.00001474
 Iteration  5 RMS(Cart)=  0.00000000 RMS(Int)=  0.00001474
 Variable       Old X    -DE/DX   Delta X   Delta X   Delta X     New X
                                 (Linear)    (Quad)   (Total)
    R1        2.52996  -0.00308   0.00000   0.00374   0.00374   2.53371
    R2        2.05693  -0.00124   0.00000  -0.00942  -0.00942   2.04751
    R3        2.05708  -0.00124   0.00000  -0.00917  -0.00917   2.04792
    R4        2.87490  -0.00257   0.00000  -0.01492  -0.01492   2.85998
    R5        2.87334  -0.00278   0.00000  -0.01873  -0.01873   2.85462
    R6        2.06793  -0.00018   0.00000   0.00040   0.00040   2.06833
    R7        2.07361  -0.00022   0.00000  -0.00259  -0.00259   2.07103
    R8        2.06960  -0.00048   0.00000  -0.00756  -0.00756   2.06204
    R9        2.07432  -0.00020   0.00000  -0.00228  -0.00228   2.07204
   R10        2.06913  -0.00048   0.00000  -0.00729  -0.00729   2.06184
   R11        2.06828  -0.00012   0.00000   0.00139   0.00139   2.06967
    A1        2.12477  -0.00006   0.00000  -0.00005  -0.00005   2.12472
    A2        2.12497  -0.00005   0.00000  -0.00035  -0.00035   2.12462
    A3        2.03344   0.00011   0.00000   0.00040   0.00040   2.03385
    A4        2.11593   0.00058   0.00000   0.00945   0.00945   2.12538
    A5        2.11605   0.00058   0.00000   0.00941   0.00941   2.12547
    A6        2.05119  -0.00116   0.00000  -0.01886  -0.01886   2.03233
    A7        1.95476  -0.00050   0.00000   0.00219   0.00217   1.95693
    A8        1.93931  -0.00056   0.00000  -0.00913  -0.00914   1.93017
    A9        1.95007  -0.00021   0.00000   0.00331   0.00331   1.95337
   A10        1.86767   0.00039   0.00000  -0.00709  -0.00711   1.86056
   A11        1.87883   0.00049   0.00000   0.00209   0.00208   1.88091
   A12        1.86873   0.00048   0.00000   0.00880   0.00881   1.87754
   A13        1.93899  -0.00061   0.00000  -0.01139  -0.01141   1.92758
   A14        1.94992  -0.00019   0.00000   0.00478   0.00479   1.95471
   A15        1.95431  -0.00052   0.00000   0.00062   0.00059   1.95489
   A16        1.86954   0.00052   0.00000   0.01099   0.01101   1.88055
   A17        1.86599   0.00039   0.00000  -0.00717  -0.00723   1.85876
   A18        1.88066   0.00050   0.00000   0.00247   0.00246   1.88312
    D1        3.11548  -0.00008   0.00000  -0.01304  -0.01304   3.10243
    D2       -0.02918  -0.00008   0.00000  -0.01281  -0.01281  -0.04199
    D3       -0.02576  -0.00008   0.00000  -0.01168  -0.01168  -0.03744
    D4        3.11276  -0.00009   0.00000  -0.01145  -0.01144   3.10132
    D5        2.86383  -0.00069   0.00000  -0.26251  -0.26252   2.60131
    D6       -1.33161  -0.00091   0.00000  -0.27630  -0.27629  -1.60790
    D7        0.75431  -0.00082   0.00000  -0.26910  -0.26911   0.48520
    D8       -0.27481  -0.00069   0.00000  -0.26278  -0.26279  -0.53759
    D9        1.81293  -0.00091   0.00000  -0.27657  -0.27655   1.53638
   D10       -2.38433  -0.00082   0.00000  -0.26937  -0.26938  -2.65371
   D11       -1.41257  -0.00106   0.00000  -0.31474  -0.31471  -1.72729
   D12        0.67408  -0.00094   0.00000  -0.30531  -0.30532   0.36875
   D13        2.78553  -0.00080   0.00000  -0.29829  -0.29831   2.48723
   D14        1.72606  -0.00106   0.00000  -0.31447  -0.31445   1.41162
   D15       -2.47047  -0.00094   0.00000  -0.30504  -0.30505  -2.77553
   D16       -0.35902  -0.00080   0.00000  -0.29802  -0.29804  -0.65705
         Item               Value     Threshold  Converged?
 Maximum Force            0.003082     0.000450     NO 
 RMS     Force            0.000959     0.000300     NO 
 Maximum Displacement     0.575949     0.001800     NO 
 RMS     Displacement     0.195405     0.001200     NO 
 Predicted change in Energy=-4.192988D-03
 GradGradGradGradGradGradGradGradGradGradGradGradGradGradGradGradGradGrad

                          Input orientation:                          
 ---------------------------------------------------------------------
 Center     Atomic      Atomic             Coordinates (Angstroms)
 Number     Number       Type             X           Y           Z
 ---------------------------------------------------------------------
      1          6           0       -0.001026    1.447143    0.011472
      2          6           0        0.001126    0.106396    0.002107
      3          6           0       -1.282048   -0.692091   -0.077693
      4          6           0        1.284588   -0.687595    0.067011
      5          1           0        0.915213    2.017925    0.104592
      6          1           0       -0.919486    2.016237   -0.072136
      7          1           0       -1.143150   -1.644497   -0.598831
      8          1           0       -1.647916   -0.935013    0.926406
      9          1           0       -2.072167   -0.143014   -0.592382
     10          1           0        1.581657   -1.017936   -0.935428
     11          1           0        2.106750   -0.102214    0.481538
     12          1           0        1.176796   -1.593055    0.673674
 ---------------------------------------------------------------------
                    Distance matrix (angstroms):
                    1          2          3          4          5
     1  C    0.000000
     2  C    1.340781   0.000000
     3  C    2.495053   1.513436   0.000000
     4  C    2.492587   1.510599   2.570716   0.000000
     5  H    1.083493   2.121320   3.493619   2.730877   0.000000
     6  H    1.083710   2.121445   2.732494   3.491133   1.843192
     7  H    3.351888   2.176264   1.094511   2.693125   4.259695
     8  H    3.037107   2.158287   1.095939   3.065837   3.995604
     9  H    2.680086   2.171213   1.091182   3.463982   3.752315
    10  H    3.078655   2.154338   3.007108   1.096476   3.277536
    11  H    2.657854   2.169568   3.484917   1.091079   2.461064
    12  H    3.326947   2.172864   2.724372   1.095224   3.664895
                    6          7          8          9         10
     6  H    0.000000
     7  H    3.705186   0.000000
     8  H    3.199621   1.756275   0.000000
     9  H    2.502337   1.765663   1.764643   0.000000
    10  H    4.025816   2.816106   3.728733   3.772744   0.000000
    11  H    3.735303   3.756020   3.871561   4.314894   1.766936
    12  H    4.240002   2.646520   2.911339   3.776411   1.756099
                   11         12
    11  H    0.000000
    12  H    1.767579   0.000000
 Stoichiometry    C4H8
 Framework group  C1[X(C4H8)]
 Deg. of freedom    30
 Full point group                 C1      NOp   1
 Largest Abelian subgroup         C1      NOp   1
 Largest concise Abelian subgroup C1      NOp   1
                         Standard orientation:                         
 ---------------------------------------------------------------------
 Center     Atomic      Atomic             Coordinates (Angstroms)
 Number     Number       Type             X           Y           Z
 ---------------------------------------------------------------------
      1          6           0       -0.012028    1.458339    0.000256
      2          6           0       -0.001848    0.117598   -0.000975
      3          6           0        1.290764   -0.669576   -0.000497
      4          6           0       -1.279888   -0.687709    0.000724
      5          1           0       -0.937064    2.021313   -0.036162
      6          1           0        0.904656    2.035253    0.036148
      7          1           0        1.190085   -1.627091    0.520065
      8          1           0        1.601113   -0.901601   -1.025646
      9          1           0        2.103987   -0.117083    0.472892
     10          1           0       -1.516604   -1.028258    1.015737
     11          1           0       -2.129393   -0.106867   -0.361794
     12          1           0       -1.198777   -1.587577   -0.618287
 ---------------------------------------------------------------------
 Rotational constants (GHZ):           9.1486864           8.2459491           4.5821410
 Standard basis: 6-31G(d,p) (6D, 7F)
 There are   100 symmetry adapted cartesian basis functions of A   symmetry.
 There are   100 symmetry adapted basis functions of A   symmetry.
   100 basis functions,   168 primitive gaussians,   100 cartesian basis functions
    16 alpha electrons       16 beta electrons
       nuclear repulsion energy       119.2332091442 Hartrees.
 NAtoms=   12 NActive=   12 NUniq=   12 SFac= 1.00D+00 NAtFMM=   60 NAOKFM=F Big=F
 Integral buffers will be    131072 words long.
 Raffenetti 2 integral format.
 Two-electron integral symmetry is turned on.
 One-electron integrals computed using PRISM.
 NBasis=   100 RedAO= T EigKep=  4.09D-03  NBF=   100
 NBsUse=   100 1.00D-06 EigRej= -1.00D+00 NBFU=   100
 Initial guess from the checkpoint file:  "C=C(C)C.chk"
 B after Tr=    -0.000000   -0.000000    0.000000
         Rot=    0.999925   -0.001187   -0.011736   -0.003150 Ang=  -1.40 deg.
 ExpMin= 1.61D-01 ExpMax= 3.05D+03 ExpMxC= 4.57D+02 IAcc=3 IRadAn=         5 AccDes= 0.00D+00
 Harris functional with IExCor=  402 and IRadAn=       5 diagonalized for initial guess.
 HarFok:  IExCor=  402 AccDes= 0.00D+00 IRadAn=         5 IDoV= 1 UseB2=F ITyADJ=14
 ICtDFT=  3500011 ScaDFX=  1.000000  1.000000  1.000000  1.000000
 FoFCou: FMM=F IPFlag=           0 FMFlag=      100000 FMFlg1=           0
         NFxFlg=           0 DoJE=T BraDBF=F KetDBF=T FulRan=T
         wScrn=  0.000000 ICntrl=       500 IOpCl=  0 I1Cent=   200000004 NGrid=           0
         NMat0=    1 NMatS0=      1 NMatT0=    0 NMatD0=    1 NMtDS0=    0 NMtDT0=    0
 Petite list used in FoFCou.
 Keep R1 ints in memory in canonical form, NReq=20167911.
 Requested convergence on RMS density matrix=1.00D-08 within 128 cycles.
 Requested convergence on MAX density matrix=1.00D-06.
 Requested convergence on             energy=1.00D-06.
 Level shift goal  0.100 maximum shift  0.100.
 No special actions if energy rises.
 Dynamic level shift is on during FON iterations.
 Integral accuracy reduced to 1.0D-05 until final iterations.
 Initial convergence to 1.0D-05 achieved.  Increase integral accuracy.
 SCF Done:  E(RB3LYP) =  -157.236313522     A.U. after   12 cycles
            NFock= 12  Conv=0.22D-08     -V/T= 2.0103
 Calling FoFJK, ICntrl=      2127 FMM=F ISym2X=0 I1Cent= 0 IOpClX= 0 NMat=1 NMatS=1 NMatT=0.
 ***** Axes restored to original set *****
 -------------------------------------------------------------------
 Center     Atomic                   Forces (Hartrees/Bohr)
 Number     Number              X              Y              Z
 -------------------------------------------------------------------
      1        6          -0.000192463   -0.006799112   -0.000006515
      2        6          -0.000195695    0.004685746   -0.000265754
      3        6           0.001020361    0.000125151   -0.001067973
      4        6          -0.000815036   -0.000219582    0.001236008
      5        1           0.001897662    0.000772734    0.000070889
      6        1          -0.001841352    0.000792381   -0.000096427
      7        1           0.000996138   -0.000165005   -0.001069960
      8        1           0.000157614   -0.001053047    0.001225601
      9        1          -0.001350577    0.001607572    0.000248839
     10        1          -0.000155386   -0.001095361   -0.000949970
     11        1           0.001267100    0.001469129   -0.000348903
     12        1          -0.000788364   -0.000120607    0.001024165
 -------------------------------------------------------------------
 Cartesian Forces:  Max     0.006799112 RMS     0.001649631

 GradGradGradGradGradGradGradGradGradGradGradGradGradGradGradGradGradGrad
 Berny optimization.
 Using GEDIIS/GDIIS optimizer.
 FormGI is forming the generalized inverse of G from B-inverse, IUseBI=4.
 Internal  Forces:  Max     0.005233868 RMS     0.001177115
 Search for a local minimum.
 Step number   4 out of a maximum of   55
 All quantities printed in internal units (Hartrees-Bohrs-Radians)
 Mixed Optimization -- RFO/linear search
 Update second derivatives using D2CorX and points    3    4
 DE= -3.30D-03 DEPred=-4.19D-03 R= 7.88D-01
 TightC=F SS=  1.41D+00  RLast= 1.00D+00 DXNew= 1.3970D+00 3.0006D+00
 Trust test= 7.88D-01 RLast= 1.00D+00 DXMaxT set to 1.40D+00
 ITU=  1  1  1  0
 Use linear search instead of GDIIS.
     Eigenvalues ---    0.00015   0.00925   0.01508   0.03027   0.03108
     Eigenvalues ---    0.06811   0.07102   0.07310   0.07337   0.13293
     Eigenvalues ---    0.15999   0.16000   0.16000   0.16000   0.16000
     Eigenvalues ---    0.16100   0.16588   0.22447   0.25005   0.33548
     Eigenvalues ---    0.34339   0.34629   0.34647   0.34656   0.34670
     Eigenvalues ---    0.34890   0.35678   0.36974   0.50663   0.59205
 RFO step:  Lambda=-5.10810694D-04 EMin= 1.49272552D-04
 Quartic linear search produced a step of  0.92093.
 Iteration  1 RMS(Cart)=  0.13827549 RMS(Int)=  0.08394058
 Iteration  2 RMS(Cart)=  0.11105222 RMS(Int)=  0.00788681
 Iteration  3 RMS(Cart)=  0.00821467 RMS(Int)=  0.00009050
 Iteration  4 RMS(Cart)=  0.00003301 RMS(Int)=  0.00008691
 Iteration  5 RMS(Cart)=  0.00000000 RMS(Int)=  0.00008691
 Variable       Old X    -DE/DX   Delta X   Delta X   Delta X     New X
                                 (Linear)    (Quad)   (Total)
    R1        2.53371  -0.00523   0.00345  -0.01430  -0.01086   2.52285
    R2        2.04751   0.00202  -0.00868   0.00931   0.00063   2.04814
    R3        2.04792   0.00198  -0.00844   0.00920   0.00076   2.04867
    R4        2.85998  -0.00093  -0.01374  -0.00180  -0.01553   2.84444
    R5        2.85462  -0.00039  -0.01725  -0.00044  -0.01768   2.83694
    R6        2.06833   0.00078   0.00036   0.00319   0.00356   2.07188
    R7        2.07103   0.00130  -0.00238   0.00653   0.00414   2.07517
    R8        2.06204   0.00167  -0.00697   0.00670  -0.00027   2.06177
    R9        2.07204   0.00116  -0.00210   0.00618   0.00408   2.07612
   R10        2.06184   0.00161  -0.00671   0.00636  -0.00035   2.06149
   R11        2.06967   0.00074   0.00128   0.00324   0.00452   2.07419
    A1        2.12472  -0.00027  -0.00005  -0.00129  -0.00134   2.12338
    A2        2.12462  -0.00017  -0.00032  -0.00002  -0.00035   2.12427
    A3        2.03385   0.00043   0.00037   0.00132   0.00169   2.03554
    A4        2.12538   0.00031   0.00870   0.00724   0.01594   2.14133
    A5        2.12547   0.00058   0.00867   0.00867   0.01733   2.14280
    A6        2.03233  -0.00089  -0.01737  -0.01590  -0.03327   1.99906
    A7        1.95693  -0.00145   0.00200  -0.01659  -0.01471   1.94222
    A8        1.93017   0.00011  -0.00842  -0.00307  -0.01160   1.91857
    A9        1.95337  -0.00014   0.00304   0.00040   0.00346   1.95683
   A10        1.86056   0.00047  -0.00655   0.00328  -0.00351   1.85705
   A11        1.88091   0.00095   0.00192   0.01400   0.01593   1.89684
   A12        1.87754   0.00015   0.00812   0.00318   0.01132   1.88886
   A13        1.92758   0.00023  -0.01051  -0.00204  -0.01268   1.91491
   A14        1.95471  -0.00018   0.00441  -0.00013   0.00430   1.95901
   A15        1.95489  -0.00125   0.00054  -0.01502  -0.01462   1.94028
   A16        1.88055   0.00011   0.01014   0.00323   0.01340   1.89395
   A17        1.85876   0.00033  -0.00666   0.00166  -0.00529   1.85347
   A18        1.88312   0.00083   0.00227   0.01328   0.01555   1.89867
    D1        3.10243   0.00007  -0.01201  -0.00523  -0.01730   3.08513
    D2       -0.04199   0.00014  -0.01180   0.00136  -0.01037  -0.05236
    D3       -0.03744   0.00003  -0.01076  -0.00724  -0.01806  -0.05550
    D4        3.10132   0.00010  -0.01054  -0.00065  -0.01112   3.09020
    D5        2.60131  -0.00075  -0.24176  -0.09019  -0.33208   2.26923
    D6       -1.60790  -0.00102  -0.25444  -0.09894  -0.35330  -1.96120
    D7        0.48520  -0.00085  -0.24783  -0.09673  -0.34460   0.14060
    D8       -0.53759  -0.00083  -0.24201  -0.09648  -0.33857  -0.87616
    D9        1.53638  -0.00110  -0.25469  -0.10523  -0.35978   1.17660
   D10       -2.65371  -0.00092  -0.24808  -0.10302  -0.35108  -3.00479
   D11       -1.72729  -0.00099  -0.28983  -0.09320  -0.38287  -2.11016
   D12        0.36875  -0.00080  -0.28118  -0.09058  -0.37174  -0.00299
   D13        2.48723  -0.00075  -0.27472  -0.08426  -0.35908   2.12815
   D14        1.41162  -0.00091  -0.28958  -0.08691  -0.37638   1.03524
   D15       -2.77553  -0.00073  -0.28093  -0.08429  -0.36525  -3.14078
   D16       -0.65705  -0.00068  -0.27447  -0.07797  -0.35259  -1.00964
         Item               Value     Threshold  Converged?
 Maximum Force            0.005234     0.000450     NO 
 RMS     Force            0.001177     0.000300     NO 
 Maximum Displacement     0.618701     0.001800     NO 
 RMS     Displacement     0.243702     0.001200     NO 
 Predicted change in Energy=-3.700500D-03
 GradGradGradGradGradGradGradGradGradGradGradGradGradGradGradGradGradGrad

                          Input orientation:                          
 ---------------------------------------------------------------------
 Center     Atomic      Atomic             Coordinates (Angstroms)
 Number     Number       Type             X           Y           Z
 ---------------------------------------------------------------------
      1          6           0       -0.001564    1.460163    0.015438
      2          6           0        0.002096    0.125229   -0.000668
      3          6           0       -1.255763   -0.689525   -0.140809
      4          6           0        1.259353   -0.685542    0.124552
      5          1           0        0.907688    2.029734    0.168845
      6          1           0       -0.913813    2.029241   -0.123311
      7          1           0       -1.153398   -1.447620   -0.926234
      8          1           0       -1.454740   -1.234145    0.791763
      9          1           0       -2.124420   -0.068742   -0.365388
     10          1           0        1.380001   -1.321798   -0.762925
     11          1           0        2.146615   -0.058817    0.224704
     12          1           0        1.208282   -1.365892    0.984362
 ---------------------------------------------------------------------
                    Distance matrix (angstroms):
                    1          2          3          4          5
     1  C    0.000000
     2  C    1.335036   0.000000
     3  C    2.493709   1.505215   0.000000
     4  C    2.491158   1.501241   2.529080   0.000000
     5  H    1.083828   2.115648   3.488663   2.738312   0.000000
     6  H    1.084112   2.116410   2.740242   3.486278   1.844782
     7  H    3.266294   2.160022   1.096394   2.739760   4.187990
     8  H    3.158116   2.144346   1.098133   2.848234   4.077009
     9  H    2.643690   2.166268   1.091041   3.474249   3.725947
    10  H    3.202168   2.138585   2.781016   1.098633   3.510561
    11  H    2.639274   2.164169   3.479593   1.090893   2.429013
    12  H    3.223217   2.156064   2.791953   1.097615   3.505097
                    6          7          8          9         10
     6  H    0.000000
     7  H    3.576402   0.000000
     8  H    3.432150   1.757240   0.000000
     9  H    2.434277   1.777284   1.773594   0.000000
    10  H    4.110979   2.541773   3.234269   3.742880   0.000000
    11  H    3.721199   3.760787   3.830498   4.311618   1.777141
    12  H    4.154174   3.038847   2.673226   3.822476   1.756259
                   11         12
    11  H    0.000000
    12  H    1.779325   0.000000
 Stoichiometry    C4H8
 Framework group  C1[X(C4H8)]
 Deg. of freedom    30
 Full point group                 C1      NOp   1
 Largest Abelian subgroup         C1      NOp   1
 Largest concise Abelian subgroup C1      NOp   1
                         Standard orientation:                         
 ---------------------------------------------------------------------
 Center     Atomic      Atomic             Coordinates (Angstroms)
 Number     Number       Type             X           Y           Z
 ---------------------------------------------------------------------
      1          6           0       -0.018317    1.465640   -0.000262
      2          6           0       -0.003098    0.130692    0.001700
      3          6           0        1.272891   -0.667753   -0.001497
      4          6           0       -1.256025   -0.696290    0.002084
      5          1           0       -0.945971    2.023914   -0.049966
      6          1           0        0.896134    2.046034    0.046869
      7          1           0        1.264456   -1.434542    0.782112
      8          1           0        1.378448   -1.200770   -0.955775
      9          1           0        2.152474   -0.037075    0.136165
     10          1           0       -1.273339   -1.342470    0.890423
     11          1           0       -2.156881   -0.081064    0.003610
     12          1           0       -1.288033   -1.367760   -0.865592
 ---------------------------------------------------------------------
 Rotational constants (GHZ):           9.0544418           8.5088055           4.6373240
 Standard basis: 6-31G(d,p) (6D, 7F)
 There are   100 symmetry adapted cartesian basis functions of A   symmetry.
 There are   100 symmetry adapted basis functions of A   symmetry.
   100 basis functions,   168 primitive gaussians,   100 cartesian basis functions
    16 alpha electrons       16 beta electrons
       nuclear repulsion energy       119.7425337531 Hartrees.
 NAtoms=   12 NActive=   12 NUniq=   12 SFac= 1.00D+00 NAtFMM=   60 NAOKFM=F Big=F
 Integral buffers will be    131072 words long.
 Raffenetti 2 integral format.
 Two-electron integral symmetry is turned on.
 One-electron integrals computed using PRISM.
 NBasis=   100 RedAO= T EigKep=  3.84D-03  NBF=   100
 NBsUse=   100 1.00D-06 EigRej= -1.00D+00 NBFU=   100
 Initial guess from the checkpoint file:  "C=C(C)C.chk"
 B after Tr=     0.000000    0.000000    0.000000
         Rot=    0.999892   -0.000571   -0.014527   -0.002194 Ang=  -1.68 deg.
 ExpMin= 1.61D-01 ExpMax= 3.05D+03 ExpMxC= 4.57D+02 IAcc=3 IRadAn=         5 AccDes= 0.00D+00
 Harris functional with IExCor=  402 and IRadAn=       5 diagonalized for initial guess.
 HarFok:  IExCor=  402 AccDes= 0.00D+00 IRadAn=         5 IDoV= 1 UseB2=F ITyADJ=14
 ICtDFT=  3500011 ScaDFX=  1.000000  1.000000  1.000000  1.000000
 FoFCou: FMM=F IPFlag=           0 FMFlag=      100000 FMFlg1=           0
         NFxFlg=           0 DoJE=T BraDBF=F KetDBF=T FulRan=T
         wScrn=  0.000000 ICntrl=       500 IOpCl=  0 I1Cent=   200000004 NGrid=           0
         NMat0=    1 NMatS0=      1 NMatT0=    0 NMatD0=    1 NMtDS0=    0 NMtDT0=    0
 Petite list used in FoFCou.
 Keep R1 ints in memory in canonical form, NReq=20167911.
 Requested convergence on RMS density matrix=1.00D-08 within 128 cycles.
 Requested convergence on MAX density matrix=1.00D-06.
 Requested convergence on             energy=1.00D-06.
 Level shift goal  0.100 maximum shift  0.100.
 No special actions if energy rises.
 Dynamic level shift is on during FON iterations.
 Integral accuracy reduced to 1.0D-05 until final iterations.
 Initial convergence to 1.0D-05 achieved.  Increase integral accuracy.
 SCF Done:  E(RB3LYP) =  -157.238372006     A.U. after   12 cycles
            NFock= 12  Conv=0.55D-08     -V/T= 2.0101
 Calling FoFJK, ICntrl=      2127 FMM=F ISym2X=0 I1Cent= 0 IOpClX= 0 NMat=1 NMatS=1 NMatT=0.
 ***** Axes restored to original set *****
 -------------------------------------------------------------------
 Center     Atomic                   Forces (Hartrees/Bohr)
 Number     Number              X              Y              Z
 -------------------------------------------------------------------
      1        6          -0.000184198   -0.000378797   -0.000359295
      2        6          -0.001362246   -0.000237076   -0.000499362
      3        6          -0.000662514    0.000160478    0.000450558
      4        6           0.001217708   -0.001841020    0.000046163
      5        1           0.001834934    0.000887492   -0.001282435
      6        1          -0.001681131    0.000726219    0.001291805
      7        1          -0.000501311    0.000076228   -0.000797384
      8        1          -0.000811424   -0.000480440   -0.000285350
      9        1          -0.001373886    0.000451642   -0.000057636
     10        1           0.001457265    0.000199067    0.000532270
     11        1           0.001363230    0.000293629    0.000504874
     12        1           0.000703574    0.000142578    0.000455792
 -------------------------------------------------------------------
 Cartesian Forces:  Max     0.001841020 RMS     0.000884418

 GradGradGradGradGradGradGradGradGradGradGradGradGradGradGradGradGradGrad
 Berny optimization.
 Using GEDIIS/GDIIS optimizer.
 FormGI is forming the generalized inverse of G from B-inverse, IUseBI=4.
 Internal  Forces:  Max     0.004750713 RMS     0.001395963
 Search for a local minimum.
 Step number   5 out of a maximum of   55
 All quantities printed in internal units (Hartrees-Bohrs-Radians)
 Mixed Optimization -- RFO/linear search
 Update second derivatives using D2CorX and points    4    5
 DE= -2.06D-03 DEPred=-3.70D-03 R= 5.56D-01
 TightC=F SS=  1.41D+00  RLast= 1.24D+00 DXNew= 2.3495D+00 3.7219D+00
 Trust test= 5.56D-01 RLast= 1.24D+00 DXMaxT set to 2.35D+00
 ITU=  1  1  1  1  0
 Use linear search instead of GDIIS.
     Eigenvalues ---    0.00202   0.00925   0.01528   0.03106   0.03225
     Eigenvalues ---    0.06823   0.07118   0.07442   0.07497   0.11539
     Eigenvalues ---    0.15956   0.16000   0.16000   0.16000   0.16000
     Eigenvalues ---    0.16004   0.16442   0.22664   0.24999   0.33305
     Eigenvalues ---    0.33745   0.34444   0.34647   0.34654   0.34670
     Eigenvalues ---    0.34677   0.35738   0.36974   0.45775   0.56881
 RFO step:  Lambda=-5.71982118D-04 EMin= 2.01679988D-03
 Quartic linear search produced a step of -0.02314.
 Iteration  1 RMS(Cart)=  0.03863751 RMS(Int)=  0.00087528
 Iteration  2 RMS(Cart)=  0.00090339 RMS(Int)=  0.00002328
 Iteration  3 RMS(Cart)=  0.00000044 RMS(Int)=  0.00002328
 Variable       Old X    -DE/DX   Delta X   Delta X   Delta X     New X
                                 (Linear)    (Quad)   (Total)
    R1        2.52285   0.00123   0.00025   0.00679   0.00704   2.52989
    R2        2.04814   0.00182  -0.00001  -0.00147  -0.00149   2.04665
    R3        2.04867   0.00163  -0.00002  -0.00187  -0.00188   2.04679
    R4        2.84444   0.00275   0.00036   0.00118   0.00154   2.84598
    R5        2.83694   0.00475   0.00041   0.00565   0.00606   2.84300
    R6        2.07188   0.00047  -0.00008   0.00080   0.00071   2.07260
    R7        2.07517   0.00014  -0.00010  -0.00242  -0.00252   2.07265
    R8        2.06177   0.00136   0.00001  -0.00025  -0.00025   2.06152
    R9        2.07612  -0.00039  -0.00009  -0.00382  -0.00391   2.07220
   R10        2.06149   0.00132   0.00001  -0.00014  -0.00013   2.06136
   R11        2.07419   0.00024  -0.00010   0.00041   0.00031   2.07450
    A1        2.12338  -0.00006   0.00003  -0.00070  -0.00067   2.12270
    A2        2.12427  -0.00011   0.00001  -0.00152  -0.00152   2.12276
    A3        2.03554   0.00016  -0.00004   0.00223   0.00219   2.03772
    A4        2.14133  -0.00222  -0.00037  -0.00917  -0.00954   2.13178
    A5        2.14280  -0.00202  -0.00040  -0.00863  -0.00904   2.13376
    A6        1.99906   0.00424   0.00077   0.01778   0.01854   2.01759
    A7        1.94222   0.00012   0.00034   0.00585   0.00617   1.94839
    A8        1.91857   0.00140   0.00027   0.00868   0.00892   1.92749
    A9        1.95683   0.00016  -0.00008   0.00039   0.00030   1.95713
   A10        1.85705  -0.00038   0.00008  -0.00340  -0.00335   1.85370
   A11        1.89684  -0.00057  -0.00037  -0.01000  -0.01036   1.88648
   A12        1.88886  -0.00079  -0.00026  -0.00206  -0.00233   1.88653
   A13        1.91491   0.00200   0.00029   0.01217   0.01242   1.92732
   A14        1.95901   0.00009  -0.00010  -0.00017  -0.00028   1.95874
   A15        1.94028   0.00030   0.00034   0.00611   0.00642   1.94669
   A16        1.89395  -0.00111  -0.00031  -0.00335  -0.00368   1.89027
   A17        1.85347  -0.00046   0.00012  -0.00162  -0.00157   1.85190
   A18        1.89867  -0.00091  -0.00036  -0.01357  -0.01392   1.88475
    D1        3.08513   0.00130   0.00040   0.03741   0.03785   3.12298
    D2       -0.05236   0.00143   0.00024   0.04452   0.04472  -0.00764
    D3       -0.05550   0.00127   0.00042   0.03734   0.03780  -0.01770
    D4        3.09020   0.00140   0.00026   0.04445   0.04467   3.13487
    D5        2.26923  -0.00060   0.00768  -0.07186  -0.06418   2.20505
    D6       -1.96120  -0.00012   0.00818  -0.06701  -0.05881  -2.02001
    D7        0.14060  -0.00007   0.00797  -0.06342  -0.05543   0.08517
    D8       -0.87616  -0.00073   0.00783  -0.07848  -0.07067  -0.94683
    D9        1.17660  -0.00025   0.00833  -0.07363  -0.06531   1.11129
[...]
     4   6    -0.00  -0.03   0.03    -0.04   0.00  -0.00    -0.00   0.04  -0.01
     5   1    -0.00  -0.01  -0.01     0.01  -0.00   0.00    -0.00   0.18   0.26
     6   1    -0.00  -0.01   0.01     0.01   0.00  -0.00     0.00  -0.18   0.26
     7   1     0.27   0.11   0.36     0.03   0.34   0.10     0.22   0.12   0.31
     8   1    -0.27   0.11   0.36     0.03  -0.34  -0.10    -0.22   0.12   0.31
     9   1     0.00   0.16  -0.26     0.51  -0.00   0.00    -0.00   0.17  -0.28
    10   1    -0.27   0.11  -0.36     0.03  -0.34   0.10     0.22  -0.12   0.31
    11   1     0.00   0.16   0.26     0.51  -0.00  -0.00     0.00  -0.17  -0.28
    12   1     0.27   0.11  -0.36     0.03   0.34  -0.10    -0.22  -0.12   0.31
                     22                     23                     24
                     ?L                     B2                     A1
 Frequencies --   1739.5713              3021.5765              3027.5214
 Red. masses --      4.9422                 1.0382                 1.0387
 Frc consts  --      8.8116                 5.5849                 5.6093
 IR Inten    --     14.2668                19.4085                40.3789
  Atom  AN      X      Y      Z        X      Y      Z        X      Y      Z
     1   6    -0.00  -0.00  -0.85     0.00  -0.00  -0.00    -0.00  -0.00   0.00
     2   6     0.00   0.00   1.01     0.00   0.00   0.00     0.00   0.00   0.00
     3   6    -0.00   0.04  -0.10    -0.00  -0.02   0.03     0.00  -0.02   0.03
     4   6    -0.00  -0.04  -0.10    -0.00  -0.02  -0.03    -0.00   0.02   0.03
     5   1    -0.00   0.92   0.45    -0.00   0.00   0.00    -0.00   0.02  -0.01
     6   1     0.00  -0.92   0.45    -0.00   0.00  -0.00     0.00  -0.02  -0.01
     7   1    -0.19   0.18  -0.32     0.38   0.02  -0.27     0.38   0.02  -0.27
     8   1     0.19   0.18  -0.32    -0.38   0.02  -0.27    -0.38   0.02  -0.27
     9   1    -0.00  -0.27   0.35    -0.00   0.22   0.17    -0.00   0.22   0.17
    10   1    -0.19  -0.18  -0.32    -0.38   0.02   0.27     0.38  -0.02  -0.27
    11   1     0.00   0.27   0.35    -0.00   0.22  -0.17     0.00  -0.22   0.17
    12   1     0.19  -0.18  -0.32     0.38   0.02   0.27    -0.38  -0.02  -0.27
                     25                     26                     27
                     ?L                     ?A                     ?L
 Frequencies --   3071.0867              3074.3711              3124.6793
 Red. masses --      1.0999                 1.0993                 1.1000
 Frc consts  --      6.1118                 6.1219                 6.3279
 IR Inten    --      0.0000                53.3890                24.6583
  Atom  AN      X      Y      Z        X      Y      Z        X      Y      Z
     1   6    -0.00   0.00   0.00    -0.00   0.00   0.00     0.00   0.00   0.00
     2   6     0.00  -0.00  -0.00    -0.00  -0.00  -0.00     0.00  -0.00   0.00
     3   6    -0.07   0.00   0.00    -0.07  -0.00  -0.00     0.00  -0.04  -0.05
     4   6     0.07  -0.00   0.00    -0.07  -0.00   0.00     0.00  -0.04   0.05
     5   1     0.00   0.00  -0.00    -0.00  -0.00   0.00    -0.00  -0.02   0.01
     6   1    -0.00  -0.00  -0.00    -0.00  -0.00  -0.00    -0.00  -0.02  -0.01
     7   1     0.41   0.02  -0.32     0.41   0.02  -0.32    -0.16  -0.01   0.11
     8   1     0.41  -0.02   0.32     0.41  -0.02   0.32     0.16  -0.01   0.11
     9   1    -0.02  -0.00  -0.00    -0.01   0.00   0.00    -0.00   0.55   0.41
    10   1    -0.41   0.02   0.32     0.41  -0.02  -0.32     0.16  -0.01  -0.11
    11   1     0.02   0.00  -0.00    -0.01   0.00  -0.00    -0.00   0.55  -0.41
    12   1    -0.41  -0.02  -0.32     0.41   0.02   0.32    -0.16  -0.01  -0.11
                     28                     29                     30
                     ?L                     ?L                     ?L
 Frequencies --   3126.3418              3148.8171              3230.9571
 Red. masses --      1.0999                 1.0606                 1.1159
 Frc consts  --      6.3340                 6.1960                 6.8633
 IR Inten    --     21.1986                 9.0460                21.1638
  Atom  AN      X      Y      Z        X      Y      Z        X      Y      Z
     1   6     0.00  -0.00   0.01     0.00   0.00   0.07    -0.00  -0.10   0.00
     2   6    -0.00  -0.00  -0.00    -0.00   0.00  -0.01     0.00  -0.00  -0.00
     3   6    -0.00  -0.04  -0.05     0.00   0.00   0.00     0.00  -0.00  -0.00
     4   6     0.00   0.04  -0.05    -0.00  -0.00   0.00    -0.00  -0.00   0.00
     5   1    -0.00   0.05  -0.02    -0.00   0.62  -0.37     0.00   0.63  -0.39
     6   1     0.00  -0.05  -0.02     0.00  -0.62  -0.37     0.00   0.63   0.39
     7   1    -0.16  -0.02   0.11     0.00  -0.00   0.00    -0.00   0.00   0.00
     8   1     0.16  -0.02   0.11    -0.00  -0.00   0.00     0.00   0.00   0.00
     9   1    -0.00   0.55   0.41    -0.00  -0.04  -0.03     0.00   0.02   0.01
    10   1    -0.16   0.02   0.11     0.00   0.00   0.00     0.00   0.00  -0.00
    11   1     0.00  -0.55   0.41     0.00   0.04  -0.03     0.00   0.02  -0.01
    12   1     0.16   0.02   0.11    -0.00   0.00   0.00    -0.00   0.00  -0.00

 -------------------
 - Thermochemistry -
 -------------------
 Temperature  3000.000 Kelvin.  Pressure   0.98700 Atm.
 Atom     1 has atomic number  6 and mass  12.00000
 Atom     2 has atomic number  6 and mass  12.00000
 Atom     3 has atomic number  6 and mass  12.00000
 Atom     4 has atomic number  6 and mass  12.00000
 Atom     5 has atomic number  1 and mass   1.00783
 Atom     6 has atomic number  1 and mass   1.00783
 Atom     7 has atomic number  1 and mass   1.00783
 Atom     8 has atomic number  1 and mass   1.00783
 Atom     9 has atomic number  1 and mass   1.00783
 Atom    10 has atomic number  1 and mass   1.00783
 Atom    11 has atomic number  1 and mass   1.00783
 Atom    12 has atomic number  1 and mass   1.00783
 Molecular mass:    56.06260 amu.
 Principal axes and moments of inertia in atomic units:
                           1         2         3
     Eigenvalues --   197.71403 216.26915 391.73488
           X            0.00000   0.00000   1.00000
           Y            1.00000   0.00000   0.00000
           Z           -0.00000   1.00000  -0.00000
 This molecule is an asymmetric top.
 Rotational symmetry number  2.
 Rotational temperatures (Kelvin)      0.43808     0.40049     0.22110
 Rotational constants (GHZ):           9.12804     8.34489     4.60705
 Zero-point vibrational energy     283844.4 (Joules/Mol)
                                   67.84043 (Kcal/Mol)
 Warning -- explicit consideration of  30 degrees of freedom as
           vibrations may cause significant error
 Identified internal rotation modes:
   37   2
 Vibrational temperatures:    254.48   305.56   545.56   629.98   630.23
          (Kelvin)           1019.15  1177.59  1324.79  1391.08  1424.51
                             1477.46  1569.30  1599.29  1875.00  2048.65
                             2051.60  2096.28  2136.24  2155.72  2161.57
                             2182.22  2502.86  4347.37  4355.93  4418.61
                             4423.33  4495.72  4498.11  4530.45  4648.63
 
 Zero-point correction=                           0.108111 (Hartree/Particle)
 Thermal correction to Energy=                    0.332106
 Thermal correction to Enthalpy=                  0.341606
 Thermal correction to Gibbs Free Energy=        -0.482061
 Sum of electronic and zero-point Energies=           -157.130730
 Sum of electronic and thermal Energies=              -156.906734
 Sum of electronic and thermal Enthalpies=            -156.897234
 Sum of electronic and thermal Free Energies=         -157.720901
 
                     E (Thermal)             CV                S
                      KCal/Mol        Cal/Mol-Kelvin    Cal/Mol-Kelvin
 Total                  208.400             61.900            172.286
 Corrected for 
 internal rot.          204.461             59.984            170.587
 Electronic               0.000              0.000              0.000
 Translational            8.942              2.981             49.489
 Rotational               8.942              2.981             29.835
 Vibrational            190.515             55.938             92.962
 Vibration     1          5.965              1.986              6.891
 Vibration     2          5.967              1.985              6.527
 Vibration     3          5.978              1.982              5.377
 Vibration     4          5.984              1.980              5.092
 Vibration     5          5.984              1.980              5.091
 Vibration     6          6.019              1.968              4.142
 Vibration     7          6.038              1.962              3.858
 Vibration     8          6.058              1.955              3.628
 Vibration     9          6.068              1.952              3.532
 Vibration    10          6.073              1.950              3.486
 Vibration    11          6.082              1.948              3.415
 Vibration    12          6.097              1.943              3.297
 Vibration    13          6.102              1.941              3.261
 Vibration    14          6.154              1.924              2.953
 Vibration    15          6.192              1.912              2.783
 Vibration    16          6.192              1.912              2.781
 Vibration    17          6.202              1.908              2.739
 Vibration    18          6.211              1.905              2.703
 Vibration    19          6.216              1.904              2.686
 Vibration    20          6.217              1.903              2.681
 Vibration    21          6.222              1.902              2.663
 Vibration    22          6.303              1.876              2.404
 Vibration    23          6.970              1.673              1.415
 Vibration    24          6.974              1.672              1.412
 Vibration    25          7.002              1.664              1.388
 Vibration    26          7.004              1.663              1.386
 Vibration    27          7.038              1.654              1.359
 Vibration    28          7.039              1.653              1.359
 Vibration    29          7.054              1.649              1.347
 Vibration    30          7.109              1.633              1.304
                       Q            Log10(Q)             Ln(Q)
 Total Bot       0.108767D+23         22.036498         50.740913
 Corrected for 
 Internal rot.   0.895698D+22         21.952161         50.546720
 Total V=0       0.951857D+27         26.978572         62.120457
 Corrected for 
 Internal rot.   0.783853D+27         26.894235         61.926264
 Vib (Bot)       0.274017D+07          6.437778         14.823532
 Vib (Bot)    1  0.117851D+02          1.071335          2.466840
 Vib (Bot)    2  0.981366D+01          0.991831          2.283775
 Vib (Bot)    3  0.549138D+01          0.739682          1.703180
 Vib (Bot)    4  0.475334D+01          0.676999          1.558848
 Vib (Bot)    5  0.475143D+01          0.676824          1.558445
 Vib (Bot)    6  0.292951D+01          0.466795          1.074834
 Vib (Bot)    7  0.253129D+01          0.403342          0.928730
 Vib (Bot)    8  0.224622D+01          0.351452          0.809247
 Vib (Bot)    9  0.213739D+01          0.329884          0.759586
 Vib (Bot)   10  0.208633D+01          0.319384          0.735409
 Vib (Bot)   11  0.201013D+01          0.303225          0.698201
 Vib (Bot)   12  0.189006D+01          0.276476          0.636609
 Vib (Bot)   13  0.185380D+01          0.268064          0.617240
 Vib (Bot)   14  0.157425D+01          0.197074          0.453779
 Vib (Bot)   15  0.143631D+01          0.157248          0.362077
 Vib (Bot)   16  0.143416D+01          0.156598          0.360580
 Vib (Bot)   17  0.140240D+01          0.146871          0.338184
 Vib (Bot)   18  0.137510D+01          0.138334          0.318527
 Vib (Bot)   19  0.136215D+01          0.134225          0.309064
 Vib (Bot)   20  0.135831D+01          0.132998          0.306240
 Vib (Bot)   21  0.134490D+01          0.128691          0.296321
 Vib (Bot)   22  0.116456D+01          0.066163          0.152345
 Vib (Bot)   23  0.633195D+00         -0.198462         -0.456976
 Vib (Bot)   24  0.631742D+00         -0.199461         -0.459275
 Vib (Bot)   25  0.621250D+00         -0.206734         -0.476022
 Vib (Bot)   26  0.620470D+00         -0.207279         -0.477278
 Vib (Bot)   27  0.608722D+00         -0.215581         -0.496393
 Vib (Bot)   28  0.608340D+00         -0.215854         -0.497021
 Vib (Bot)   29  0.603211D+00         -0.219531         -0.505488
 Vib (Bot)   30  0.585040D+00         -0.232815         -0.536076
 Vib (V=0)       0.239801D+12         11.379851         26.203076
 Vib (V=0)    1  0.122957D+02          1.089755          2.509253
 Vib (V=0)    2  0.103264D+02          1.013948          2.334702
 Vib (V=0)    3  0.601410D+01          0.779171          1.794107
 Vib (V=0)    4  0.527957D+01          0.722598          1.663844
 Vib (V=0)    5  0.527766D+01          0.722442          1.663483
 Vib (V=0)    6  0.347187D+01          0.540564          1.244694
 Vib (V=0)    7  0.308020D+01          0.488579          1.124995
 Vib (V=0)    8  0.280119D+01          0.447343          1.030045
 Vib (V=0)    9  0.269509D+01          0.430574          0.991433
 Vib (V=0)   10  0.264541D+01          0.422493          0.972827
 Vib (V=0)   11  0.257138D+01          0.410167          0.944445
 Vib (V=0)   12  0.245508D+01          0.390065          0.898159
 Vib (V=0)   13  0.242005D+01          0.383824          0.883788
 Vib (V=0)   14  0.215175D+01          0.332791          0.766279
 Vib (V=0)   15  0.202085D+01          0.305534          0.703518
 Vib (V=0)   16  0.201882D+01          0.305098          0.702514
 Vib (V=0)   17  0.198887D+01          0.298605          0.687564
 Vib (V=0)   18  0.196318D+01          0.292961          0.674567
 Vib (V=0)   19  0.195102D+01          0.290261          0.668351
 Vib (V=0)   20  0.194741D+01          0.289458          0.666502
 Vib (V=0)   21  0.193484D+01          0.286645          0.660024
 Vib (V=0)   22  0.176736D+01          0.247325          0.569488
 Vib (V=0)   23  0.130681D+01          0.116211          0.267586
 Vib (V=0)   24  0.130567D+01          0.115832          0.266713
 Vib (V=0)   25  0.129747D+01          0.113096          0.260413
 Vib (V=0)   26  0.129686D+01          0.112893          0.259945
 Vib (V=0)   27  0.128775D+01          0.109830          0.252893
 Vib (V=0)   28  0.128745D+01          0.109730          0.252664
 Vib (V=0)   29  0.128349D+01          0.108394          0.249587
 Vib (V=0)   30  0.126959D+01          0.103664          0.238695
 Electronic      0.100000D+01          0.000000          0.000000
 Translational   0.536862D+10          9.729863         22.403837
 Rotational      0.739362D+06          5.868857         13.513544
 ***** Axes restored to original set *****
 -------------------------------------------------------------------
 Center     Atomic                   Forces (Hartrees/Bohr)
 Number     Number              X              Y              Z
 -------------------------------------------------------------------
      1        6           0.000000023    0.000048426   -0.000000312
      2        6           0.000000005    0.000010784   -0.000000070
      3        6           0.000015499   -0.000003630    0.000001808
      4        6          -0.000015503   -0.000003639   -0.000001761
      5        1          -0.000069885   -0.000020589   -0.000007910
      6        1           0.000069866   -0.000020551    0.000008175
      7        1          -0.000002029   -0.000001373   -0.000002162
      8        1          -0.000002469   -0.000001348    0.000001662
      9        1           0.000003238   -0.000002678    0.000000390
     10        1           0.000002468   -0.000001372   -0.000001645
     11        1          -0.000003240   -0.000002680   -0.000000356
     12        1           0.000002028   -0.000001347    0.000002180
 -------------------------------------------------------------------
 Cartesian Forces:  Max     0.000069885 RMS     0.000019575
 FormGI is forming the generalized inverse of G from B-inverse, IUseBI=4.

 ----------------------------------------------------------------------

 Electric dipole moment (input orientation):
 (Debye = 10**-18 statcoulomb cm , SI units = C m)
                  (au)            (Debye)         (10**-30 SI)
   Tot        0.206965D+00      0.526053D+00      0.175472D+01
   x         -0.978396D-04     -0.248684D-03     -0.829519D-03
   y         -0.206961D+00     -0.526042D+00     -0.175469D+01
   z          0.133454D-02      0.339206D-02      0.113147D-01

 Dipole polarizability, Alpha (input orientation).
 (esu units = cm**3 , SI units = C**2 m**2 J**-1)
 Alpha(0;0):
               (au)            (10**-24 esu)      (10**-40 SI)
   iso        0.430646D+02      0.638152D+01      0.710040D+01
   aniso      0.233285D+02      0.345693D+01      0.384636D+01
   xx         0.438493D+02      0.649779D+01      0.722977D+01
   yx         0.166742D-01      0.247086D-02      0.274920D-02
   yy         0.560157D+02      0.830067D+01      0.923574D+01
   zx         0.169380D+01      0.250995D+00      0.279269D+00
   zy        -0.172892D+00     -0.256199D-01     -0.285060D-01
   zz         0.293289D+02      0.434609D+01      0.483568D+01

 ----------------------------------------------------------------------

 Dipole orientation:
     6          0.00015707         -0.00275991         -2.74194954
     6          0.00015707         -0.00275991         -0.21652684
     6         -2.39815700         -0.27766540          1.29865316
     6          2.39847115          0.27214558          1.29865316
     1          1.73646382          0.19626334         -3.81972102
     1         -1.73614968         -0.20178316         -3.81972102
     1         -2.30873948         -1.93945057          2.53744512
     1         -2.68708071          1.36125148          2.53744512
     1         -4.05863275         -0.46799656          0.08478078
     1          2.68739486         -1.36677130          2.53744512
     1          4.05894690          0.46247674          0.08478078
     1          2.30905362          1.93393076          2.53744512

 Electric dipole moment (dipole orientation):
 (Debye = 10**-18 statcoulomb cm , SI units = C m)
                  (au)            (Debye)         (10**-30 SI)
   Tot        0.206965D+00      0.526053D+00      0.175472D+01
   x          0.000000D+00      0.000000D+00      0.000000D+00
   y          0.000000D+00      0.000000D+00      0.000000D+00
   z          0.206965D+00      0.526053D+00      0.175472D+01

 Dipole polarizability, Alpha (dipole orientation).
 (esu units = cm**3 , SI units = C**2 m**2 J**-1)
 Alpha(0;0):
               (au)            (10**-24 esu)      (10**-40 SI)
   iso        0.430646D+02      0.638152D+01      0.710040D+01
   aniso      0.233285D+02      0.345693D+01      0.384636D+01
   xx         0.438508D+02      0.649802D+01      0.723003D+01
   yx         0.168705D+01      0.249995D+00      0.278156D+00
   yy         0.293262D+02      0.434569D+01      0.483524D+01
   zx         0.000000D+00      0.000000D+00      0.000000D+00
   zy         0.000000D+00      0.000000D+00      0.000000D+00
   zz         0.560168D+02      0.830083D+01      0.923592D+01

 ----------------------------------------------------------------------

 This type of calculation cannot be archived.


 The hours that make us happy make us wise.
                         -- John Masefield
 Job cpu time:       0 days  0 hours  0 minutes  0.5 seconds.
 Elapsed time:       0 days  0 hours  0 minutes  0.5 seconds.
 File lengths (MBytes):  RWF=      6 Int=      0 D2E=      0 Chk=      2 Scr=      1
 Normal termination of Gaussian 16 at Tue May  3 12:09:36 2022.
