 Entering Gaussian System, Link 0=g16
 Initial command:
 /software//g16/l1.exe "/home/tmp/g16/Gau-2308129.inp" -scrdir="/home/tmp/g16/"
 Entering Link 1 = /software//g16/l1.exe PID=   2308137.
  
 Copyright (c) 1988-2019, Gaussian, Inc.  All Rights Reserved.
  
 This is part of the Gaussian(R) 16 program.  It is based on
 the Gaussian(R) 09 system (copyright 2009, Gaussian, Inc.),
 the Gaussian(R) 03 system (copyright 2003, Gaussian, Inc.),
 the Gaussian(R) 98 system (copyright 1998, Gaussian, Inc.),
 the Gaussian(R) 94 system (copyright 1995, Gaussian, Inc.),
 the Gaussian 92(TM) system (copyright 1992, Gaussian, Inc.),
 the Gaussian 90(TM) system (copyright 1990, Gaussian, Inc.),
 the Gaussian 88(TM) system (copyright 1988, Gaussian, Inc.),
 the Gaussian 86(TM) system (copyright 1986, Carnegie Mellon
 University), and the Gaussian 82(TM) system (copyright 1983,
 Carnegie Mellon University). Gaussian is a federally registered
 trademark of Gaussian, Inc.
  
 This software contains proprietary and confidential information,
 including trade secrets, belonging to Gaussian, Inc.
  
 This software is provided under written license and may be
 used, copied, transmitted, or stored only in accord with that
 written license.
  
 The following legend is applicable only to US Government
 contracts under FAR:
  
                    RESTRICTED RIGHTS LEGEND
  
 Use, reproduction and disclosure by the US Government is
 subject to restrictions as set forth in subparagraphs (a)
 and (c) of the Commercial Computer Software - Restricted
 Rights clause in FAR 52.227-19.
  
 Gaussian, Inc.
 340 Quinnipiac St., Bldg. 40, Wallingford CT 06492
  
  
 ---------------------------------------------------------------
 Warning -- This program may not be used in any manner that
 competes with the business of Gaussian, Inc. or will provide
 assistance to any competitor of Gaussian, Inc.  The licensee
 of this program is prohibited from giving any competitor of
 Gaussian, Inc. access to this program.  By using this program,
 the user acknowledges that Gaussian, Inc. is engaged in the
 business of creating and licensing software in the field of
 computational chemistry and represents and warrants to the
 licensee that it is not a competitor of Gaussian, Inc. and that
 it will not use this program in any manner prohibited above.
 ---------------------------------------------------------------
  

 Cite this work as:
 Gaussian 16, Revision C.01,
 M. J. Frisch, G. W. Trucks, H. B. Schlegel, G. E. Scuseria, 
 M. A. Robb, J. R. Cheeseman, G. Scalmani, V. Barone, 
 G. A. Petersson, H. Nakatsuji, X. Li, M. Caricato, A. V. Marenich, 
 J. Bloino, B. G. Janesko, R. Gomperts, B. Mennucci, H. P. Hratchian, 
 J. V. Ortiz, A. F. Izmaylov, J. L. Sonnenberg, D. Williams-Young, 
 F. Ding, F. Lipparini, F. Egidi, J. Goings, B. Peng, A. Petrone, 
 T. Henderson, D. Ranasinghe, V. G. Zakrzewski, J. Gao, N. Rega, 
 G. Zheng, W. Liang, M. Hada, M. Ehara, K. Toyota, R. Fukuda, 
 J. Hasegawa, M. Ishida, T. Nakajima, Y. Honda, O. Kitao, H. Nakai, 
 T. Vreven, K. Throssell, J. A. Montgomery, Jr., J. E. Peralta, 
 F. Ogliaro, M. J. Bearpark, J. J. Heyd, E. N. Brothers, K. N. Kudin, 
 V. N. Staroverov, T. A. Keith, R. Kobayashi, J. Normand, 
 K. Raghavachari, A. P. Rendell, J. C. Burant, S. S. Iyengar, 
 J. Tomasi, M. Cossi, J. M. Millam, M. Klene, C. Adamo, R. Cammi, 
 J. W. Ochterski, R. L. Martin, K. Morokuma, O. Farkas, 
 J. B. Foresman, and D. J. Fox, Gaussian, Inc., Wallingford CT, 2019.
 
 ******************************************
 Gaussian 16:  ES64L-G16RevC.01  3-Jul-2019
                 3-May-2022 
 ******************************************
 %nprocshared=8
 Will use up to    8 processors via shared memory.
 %chk=C=CC.chk
 ----------------------------------------------------------------------
 # opt freq=hinderedrotor B3LYP/6-31g(d,p) scf=fermi symm=veryloose pre
 ss=0.987
 ----------------------------------------------------------------------
 1/18=20,19=15,26=3,38=1,113=-987000/1,3;
 2/9=110,12=2,17=2,18=2,40=1/2;
 3/5=1,6=6,7=101,11=2,25=1,30=1,71=1,74=-5/1,2,3;
 4//1;
 5/5=2,22=13,38=5/2;
 6/7=2,8=2,9=2,10=2,28=1/1;
 7//1,2,3,16;
 1/18=20,19=15,26=3/3(2);
 2/9=110/2;
 99//99;
 2/9=110/2;
 3/5=1,6=6,7=101,11=2,25=1,30=1,71=1,74=-5/1,2,3;
 4/5=5,16=3,69=1/1;
 5/5=2,22=13,38=5/2;
 7//1,2,3,16;
 1/18=20,19=15,26=3/3(-5);
 2/9=110/2;
 6/7=2,8=2,9=2,10=2,19=2,28=1/1;
 99/9=1/99;
 ------
 C=CC_1
 ------
 Symbolic Z-matrix:
 Charge =  0 Multiplicity = 1
 C                    -1.28511   0.14977   0.009 
 C                     0.        0.4843   -0.0105 
 C                     1.13665  -0.50733   0.0015 
 H                    -2.0658    0.90074  -0.009 
 H                    -1.59959  -0.8899    0.045 
 H                     0.26346   1.53864  -0.048 
 H                     1.04291  -1.2024    0.84383 
 H                     2.10483  -0.00709   0.0825 
 H                     1.14491  -1.1004   -0.91883 
 

 GradGradGradGradGradGradGradGradGradGradGradGradGradGradGradGradGradGrad
 Berny optimization.
 Initialization pass.
                           ----------------------------
                           !    Initial Parameters    !
                           ! (Angstroms and Degrees)  !
 --------------------------                            --------------------------
 ! Name  Definition              Value          Derivative Info.                !
 --------------------------------------------------------------------------------
 ! R1    R(1,2)                  1.3281         estimate D2E/DX2                !
 ! R2    R(1,4)                  1.0834         estimate D2E/DX2                !
 ! R3    R(1,5)                  1.0868         estimate D2E/DX2                !
 ! R4    R(2,3)                  1.5085         estimate D2E/DX2                !
 ! R5    R(2,6)                  1.0874         estimate D2E/DX2                !
 ! R6    R(3,7)                  1.0961         estimate D2E/DX2                !
 ! R7    R(3,8)                  1.0928         estimate D2E/DX2                !
 ! R8    R(3,9)                  1.0949         estimate D2E/DX2                !
 ! A1    A(2,1,4)              121.4956         estimate D2E/DX2                !
 ! A2    A(2,1,5)              121.43           estimate D2E/DX2                !
 ! A3    A(4,1,5)              117.0743         estimate D2E/DX2                !
 ! A4    A(1,2,3)              124.2938         estimate D2E/DX2                !
 ! A5    A(1,2,6)              118.6319         estimate D2E/DX2                !
 ! A6    A(3,2,6)              117.0711         estimate D2E/DX2                !
 ! A7    A(2,3,7)              111.01           estimate D2E/DX2                !
 ! A8    A(2,3,8)              111.5469         estimate D2E/DX2                !
 ! A9    A(2,3,9)              110.7979         estimate D2E/DX2                !
 ! A10   A(7,3,8)              108.005          estimate D2E/DX2                !
 ! A11   A(7,3,9)              107.6444         estimate D2E/DX2                !
 ! A12   A(8,3,9)              107.6731         estimate D2E/DX2                !
 ! D1    D(4,1,2,3)           -179.4934         estimate D2E/DX2                !
 ! D2    D(4,1,2,6)             -0.1601         estimate D2E/DX2                !
 ! D3    D(5,1,2,3)              0.585          estimate D2E/DX2                !
 ! D4    D(5,1,2,6)            179.9182         estimate D2E/DX2                !
 ! D5    D(1,2,3,7)            -53.7734         estimate D2E/DX2                !
 ! D6    D(1,2,3,8)           -174.2802         estimate D2E/DX2                !
 ! D7    D(1,2,3,9)             65.7779         estimate D2E/DX2                !
 ! D8    D(6,2,3,7)            126.8838         estimate D2E/DX2                !
 ! D9    D(6,2,3,8)              6.377          estimate D2E/DX2                !
 ! D10   D(6,2,3,9)           -113.5649         estimate D2E/DX2                !
 --------------------------------------------------------------------------------
 Trust Radius=3.00D-01 FncErr=1.00D-07 GrdErr=1.00D-06 EigMax=2.50D+02 EigMin=1.00D-04
 Number of steps in this run=     40 maximum allowed number of steps=    100.
 GradGradGradGradGradGradGradGradGradGradGradGradGradGradGradGradGradGrad

                          Input orientation:                          
 ---------------------------------------------------------------------
 Center     Atomic      Atomic             Coordinates (Angstroms)
 Number     Number       Type             X           Y           Z
 ---------------------------------------------------------------------
      1          6           0       -1.285107    0.149769    0.009000
      2          6           0        0.000000    0.484296   -0.010500
      3          6           0        1.136653   -0.507330    0.001500
      4          1           0       -2.065797    0.900742   -0.009000
      5          1           0       -1.599585   -0.889899    0.045000
      6          1           0        0.263462    1.538638   -0.048000
      7          1           0        1.042906   -1.202402    0.843829
      8          1           0        2.104831   -0.007088    0.082500
      9          1           0        1.144906   -1.100402   -0.918829
 ---------------------------------------------------------------------
                    Distance matrix (angstroms):
                    1          2          3          4          5
     1  C    0.000000
     2  C    1.328077   0.000000
     3  C    2.509334   1.508458   0.000000
     4  H    1.083403   2.107355   3.498351   0.000000
     5  H    1.086785   2.109541   2.763196   1.851125   0.000000
     6  H    2.080931   1.087408   2.225061   2.415343   3.062252
     7  H    2.818679   2.159278   1.096098   3.848970   2.778227
     8  H    3.394361   2.163428   1.092782   4.269270   3.808341
     9  H    2.885959   2.155722   1.094901   3.891141   2.916421
                    6          7          8          9
     6  H    0.000000
     7  H    2.985999   0.000000
     8  H    2.407683   1.770899   0.000000
     9  H    2.915445   1.768551   1.766197   0.000000
 Stoichiometry    C3H6
 Framework group  C1[X(C3H6)]
 Deg. of freedom    21
 Full point group                 C1      NOp   1
 Largest Abelian subgroup         C1      NOp   1
 Largest concise Abelian subgroup C1      NOp   1
                         Standard orientation:                         
 ---------------------------------------------------------------------
 Center     Atomic      Atomic             Coordinates (Angstroms)
 Number     Number       Type             X           Y           Z
 ---------------------------------------------------------------------
      1          6           0        1.273742   -0.227149    0.000671
      2          6           0        0.139590    0.463844   -0.003469
      3          6           0       -1.234644   -0.158179    0.000261
      4          1           0        2.237736    0.267269    0.005875
      5          1           0        1.275233   -1.313929   -0.002282
      6          1           0        0.191175    1.550018    0.001126
      7          1           0       -1.343302   -0.876067   -0.820874
      8          1           0       -2.017317    0.597066   -0.105566
      9          1           0       -1.415652   -0.695460    0.936943
 ---------------------------------------------------------------------
 Rotational constants (GHZ):          46.2632965           9.3232526           8.1539323
 Standard basis: 6-31G(d,p) (6D, 7F)
 There are    75 symmetry adapted cartesian basis functions of A   symmetry.
 There are    75 symmetry adapted basis functions of A   symmetry.
    75 basis functions,   126 primitive gaussians,    75 cartesian basis functions
    12 alpha electrons       12 beta electrons
       nuclear repulsion energy        70.6955016928 Hartrees.
 NAtoms=    9 NActive=    9 NUniq=    9 SFac= 1.00D+00 NAtFMM=   60 NAOKFM=F Big=F
 Integral buffers will be    131072 words long.
 Raffenetti 2 integral format.
 Two-electron integral symmetry is turned on.
 One-electron integrals computed using PRISM.
 NBasis=    75 RedAO= T EigKep=  5.19D-03  NBF=    75
 NBsUse=    75 1.00D-06 EigRej= -1.00D+00 NBFU=    75
 ExpMin= 1.61D-01 ExpMax= 3.05D+03 ExpMxC= 4.57D+02 IAcc=3 IRadAn=         5 AccDes= 0.00D+00
 Harris functional with IExCor=  402 and IRadAn=       5 diagonalized for initial guess.
 HarFok:  IExCor=  402 AccDes= 0.00D+00 IRadAn=         5 IDoV= 1 UseB2=F ITyADJ=14
 ICtDFT=  3500011 ScaDFX=  1.000000  1.000000  1.000000  1.000000
 FoFCou: FMM=F IPFlag=           0 FMFlag=      100000 FMFlg1=           0
         NFxFlg=           0 DoJE=T BraDBF=F KetDBF=T FulRan=T
         wScrn=  0.000000 ICntrl=       500 IOpCl=  0 I1Cent=   200000004 NGrid=           0
         NMat0=    1 NMatS0=      1 NMatT0=    0 NMatD0=    1 NMtDS0=    0 NMtDT0=    0
 Petite list used in FoFCou.
 Keep R1 ints in memory in canonical form, NReq=11245314.
 Requested convergence on RMS density matrix=1.00D-08 within 128 cycles.
 Requested convergence on MAX density matrix=1.00D-06.
 Requested convergence on             energy=1.00D-06.
 Level shift goal  0.100 maximum shift  0.100.
 No special actions if energy rises.
 Dynamic level shift is on during FON iterations.
 Integral accuracy reduced to 1.0D-05 until final iterations.
 Initial convergence to 1.0D-05 achieved.  Increase integral accuracy.
 SCF Done:  E(RB3LYP) =  -117.913248990     A.U. after   12 cycles
            NFock= 12  Conv=0.37D-08     -V/T= 2.0102

 **********************************************************************

            Population analysis using the SCF Density.

 **********************************************************************

 Orbital symmetries:
       Occupied  (A) (A) (A) (A) (A) (A) (A) (A) (A) (A) (A) (A)
       Virtual   (A) (A) (A) (A) (A) (A) (A) (A) (A) (A) (A) (A)
                 (A) (A) (A) (A) (A) (A) (A) (A) (A) (A) (A) (A)
                 (A) (A) (A) (A) (A) (A) (A) (A) (A) (A) (A) (A)
                 (A) (A) (A) (A) (A) (A) (A) (A) (A) (A) (A) (A)
                 (A) (A) (A) (A) (A) (A) (A) (A) (A) (A) (A) (A)
                 (A) (A) (A)
 The electronic state is 1-A.
 Alpha  occ. eigenvalues --  -10.18526 -10.17920 -10.17056  -0.77937  -0.67967
 Alpha  occ. eigenvalues --   -0.54831  -0.46016  -0.41565  -0.40877  -0.36667
 Alpha  occ. eigenvalues --   -0.33909  -0.24875
 Alpha virt. eigenvalues --    0.02159   0.11095   0.13222   0.15228   0.18603
 Alpha virt. eigenvalues --    0.19095   0.20106   0.28889   0.34796   0.49204
 Alpha virt. eigenvalues --    0.52620   0.54635   0.58346   0.61048   0.67528
 Alpha virt. eigenvalues --    0.68325   0.74346   0.77561   0.83812   0.85633
 Alpha virt. eigenvalues --    0.86899   0.89524   0.92382   0.93998   1.11597
 Alpha virt. eigenvalues --    1.20854   1.28898   1.30879   1.39700   1.48082
 Alpha virt. eigenvalues --    1.65762   1.81756   1.82744   1.87652   1.98468
 Alpha virt. eigenvalues --    2.01575   2.04660   2.05347   2.06463   2.15314
 Alpha virt. eigenvalues --    2.17848   2.28216   2.37958   2.38601   2.44235
 Alpha virt. eigenvalues --    2.49079   2.62266   2.63431   2.64932   2.70243
 Alpha virt. eigenvalues --    2.83620   2.86877   2.87496   3.05438   3.17499
 Alpha virt. eigenvalues --    3.28112   3.39770   3.43097   3.47056   3.69452
 Alpha virt. eigenvalues --    4.18189   4.38474   4.59370
          Condensed to atoms (all electrons):
               1          2          3          4          5          6
     1  C    4.880025   0.689713  -0.051129   0.375825   0.385859  -0.041639
     2  C    0.689713   4.745656   0.378267  -0.023641  -0.042104   0.385819
     3  C   -0.051129   0.378267   4.939993   0.005379  -0.010590  -0.056149
     4  H    0.375825  -0.023641   0.005379   0.604479  -0.045793  -0.009761
     5  H    0.385859  -0.042104  -0.010590  -0.045793   0.613568   0.006404
     6  H   -0.041639   0.385819  -0.056149  -0.009761   0.006404   0.627150
     7  H   -0.007490  -0.033243   0.384726  -0.000057   0.002739   0.004054
     8  H    0.004214  -0.024635   0.379458  -0.000210   0.000094  -0.006302
     9  H   -0.007147  -0.033488   0.383877  -0.000094   0.001743   0.003585
               7          8          9
     1  C   -0.007490   0.004214  -0.007147
     2  C   -0.033243  -0.024635  -0.033488
     3  C    0.384726   0.379458   0.383877
     4  H   -0.000057  -0.000210  -0.000094
     5  H    0.002739   0.000094   0.001743
     6  H    0.004054  -0.006302   0.003585
     7  H    0.586179  -0.030615  -0.028753
     8  H   -0.030615   0.601343  -0.031648
     9  H   -0.028753  -0.031648   0.587073
 Mulliken charges:
               1
     1  C   -0.228232
     2  C   -0.042344
     3  C   -0.353831
     4  H    0.093872
     5  H    0.088083
     6  H    0.086839
     7  H    0.122461
     8  H    0.108301
     9  H    0.124852
 Sum of Mulliken charges =  -0.00000
 Mulliken charges with hydrogens summed into heavy atoms:
               1
     1  C   -0.046277
     2  C    0.044494
     3  C    0.001782
 Electronic spatial extent (au):  <R**2>=            196.1195
 Charge=             -0.0000 electrons
 Dipole moment (field-independent basis, Debye):
    X=             -0.3481    Y=              0.0045    Z=              0.0186  Tot=              0.3486
 Quadrupole moment (field-independent basis, Debye-Ang):
   XX=            -18.9982   YY=            -18.6764   ZZ=            -21.1724
   XY=             -0.0312   XZ=             -0.0035   YZ=              0.0081
 Traceless Quadrupole moment (field-independent basis, Debye-Ang):
   XX=              0.6175   YY=              0.9392   ZZ=             -1.5567
   XY=             -0.0312   XZ=             -0.0035   YZ=              0.0081
 Octapole moment (field-independent basis, Debye-Ang**2):
  XXX=              1.6581  YYY=              0.4226  ZZZ=              0.2003  XYY=              0.1775
  XXY=              0.8156  XXZ=              0.0198  XZZ=             -1.8526  YZZ=             -0.7425
  YYZ=             -0.1306  XYZ=              0.0534
 Hexadecapole moment (field-independent basis, Debye-Ang**3):
 XXXX=           -178.8100 YYYY=            -51.7246 ZZZZ=            -28.4810 XXXY=              0.3004
 XXXZ=              0.1518 YYYX=             -0.8069 YYYZ=              0.1840 ZZZX=             -0.2968
 ZZZY=             -0.0694 XXYY=            -38.6278 XXZZ=            -36.9865 YYZZ=            -13.9035
 XXYZ=             -0.1696 YYXZ=              0.1887 ZZXY=              0.9276
 N-N= 7.069550169276D+01 E-N=-4.136182619361D+02  KE= 1.167283268037D+02
 Calling FoFJK, ICntrl=      2127 FMM=F ISym2X=0 I1Cent= 0 IOpClX= 0 NMat=1 NMatS=1 NMatT=0.
 ***** Axes restored to original set *****
 -------------------------------------------------------------------
 Center     Atomic                   Forces (Hartrees/Bohr)
 Number     Number              X              Y              Z
 -------------------------------------------------------------------
      1        6          -0.003623772   -0.000672811    0.000538896
      2        6           0.003232743    0.000521817   -0.000398247
      3        6           0.000267671    0.000752569    0.000984859
      4        1          -0.001766578    0.000495769   -0.000068387
      5        1          -0.001223435   -0.000536419    0.000137580
      6        1           0.000723107    0.001235396   -0.000227458
      7        1           0.000808328   -0.000356700   -0.000951927
      8        1           0.000491079   -0.000561148    0.000315735
      9        1           0.001090857   -0.000878474   -0.000331051
 -------------------------------------------------------------------
 Cartesian Forces:  Max     0.003623772 RMS     0.001187179

 GradGradGradGradGradGradGradGradGradGradGradGradGradGradGradGradGradGrad
 Berny optimization.
 FormGI is forming the generalized inverse of G from B-inverse, IUseBI=4.
 Internal  Forces:  Max     0.006588500 RMS     0.001566148
 Search for a local minimum.
 Step number   1 out of a maximum of   40
 All quantities printed in internal units (Hartrees-Bohrs-Radians)
 Mixed Optimization -- RFO/linear search
 Second derivative matrix not updated -- first step.
 ITU=  0
     Eigenvalues ---    0.00654   0.01625   0.03040   0.03040   0.07099
     Eigenvalues ---    0.07198   0.15999   0.16000   0.16000   0.16000
     Eigenvalues ---    0.16000   0.16000   0.22000   0.31506   0.34117
     Eigenvalues ---    0.34252   0.34493   0.35114   0.35187   0.35586
     Eigenvalues ---    0.59962
 RFO step:  Lambda=-2.71903550D-04 EMin= 6.54061645D-03
 Linear search not attempted -- first point.
 Iteration  1 RMS(Cart)=  0.02373034 RMS(Int)=  0.00026442
 Iteration  2 RMS(Cart)=  0.00028921 RMS(Int)=  0.00001051
 Iteration  3 RMS(Cart)=  0.00000004 RMS(Int)=  0.00001050
 Variable       Old X    -DE/DX   Delta X   Delta X   Delta X     New X
                                 (Linear)    (Quad)   (Total)
    R1        2.50970   0.00659   0.00000   0.01098   0.01098   2.52068
    R2        2.04733   0.00162   0.00000   0.00454   0.00454   2.05188
    R3        2.05373   0.00087   0.00000   0.00248   0.00248   2.05620
    R4        2.85057   0.00269   0.00000   0.00853   0.00853   2.85910
    R5        2.05490   0.00138   0.00000   0.00393   0.00393   2.05883
    R6        2.07133  -0.00057   0.00000  -0.00168  -0.00168   2.06964
    R7        2.06506   0.00020   0.00000   0.00058   0.00058   2.06564
    R8        2.06906   0.00076   0.00000   0.00222   0.00222   2.07129
    A1        2.12050   0.00049   0.00000   0.00304   0.00304   2.12354
    A2        2.11935   0.00080   0.00000   0.00499   0.00499   2.12434
    A3        2.04333  -0.00129   0.00000  -0.00802  -0.00803   2.03531
    A4        2.16934   0.00210   0.00000   0.00955   0.00954   2.17888
    A5        2.07052  -0.00063   0.00000  -0.00213  -0.00214   2.06837
    A6        2.04328  -0.00147   0.00000  -0.00734  -0.00735   2.03593
    A7        1.93749   0.00116   0.00000   0.00721   0.00719   1.94468
    A8        1.94686   0.00047   0.00000   0.00269   0.00268   1.94954
    A9        1.93379   0.00134   0.00000   0.00861   0.00858   1.94237
   A10        1.88504  -0.00095   0.00000  -0.00642  -0.00643   1.87862
   A11        1.87875  -0.00123   0.00000  -0.00721  -0.00725   1.87150
   A12        1.87925  -0.00096   0.00000  -0.00594  -0.00595   1.87330
    D1       -3.13275  -0.00001   0.00000  -0.00225  -0.00226  -3.13501
    D2       -0.00279   0.00013   0.00000   0.00601   0.00601   0.00322
    D3        0.01021   0.00003   0.00000  -0.00096  -0.00097   0.00924
    D4        3.14017   0.00016   0.00000   0.00730   0.00731  -3.13571
    D5       -0.93852   0.00028   0.00000   0.04316   0.04314  -0.89538
    D6       -3.04176   0.00038   0.00000   0.04456   0.04456  -2.99721
    D7        1.14804   0.00037   0.00000   0.04447   0.04448   1.19252
    D8        2.21454   0.00014   0.00000   0.03498   0.03498   2.24952
    D9        0.11130   0.00024   0.00000   0.03639   0.03639   0.14769
   D10       -1.98208   0.00023   0.00000   0.03630   0.03631  -1.94577
         Item               Value     Threshold  Converged?
 Maximum Force            0.006588     0.000450     NO 
 RMS     Force            0.001566     0.000300     NO 
 Maximum Displacement     0.066539     0.001800     NO 
 RMS     Displacement     0.023756     0.001200     NO 
 Predicted change in Energy=-1.373941D-04
 GradGradGradGradGradGradGradGradGradGradGradGradGradGradGradGradGradGrad

                          Input orientation:                          
 ---------------------------------------------------------------------
 Center     Atomic      Atomic             Coordinates (Angstroms)
 Number     Number       Type             X           Y           Z
 ---------------------------------------------------------------------
      1          6           0       -1.294795    0.152393    0.015331
      2          6           0       -0.002569    0.481291   -0.019853
      3          6           0        1.141974   -0.508017   -0.000633
      4          1           0       -2.075769    0.906421   -0.006979
      5          1           0       -1.619831   -0.884565    0.070285
      6          1           0        0.264308    1.536434   -0.069181
      7          1           0        1.041506   -1.219933    0.825540
      8          1           0        2.107328   -0.007166    0.109312
      9          1           0        1.180117   -1.090533   -0.928322
 ---------------------------------------------------------------------
                    Distance matrix (angstroms):
                    1          2          3          4          5
     1  C    0.000000
     2  C    1.333889   0.000000
     3  C    2.524726   1.512971   0.000000
     4  H    1.085806   2.116378   3.514903   0.000000
     5  H    1.088095   2.118779   2.788258   1.849725   0.000000
     6  H    2.086507   1.089487   2.225933   2.424200   3.070939
     7  H    2.828078   2.167706   1.095208   3.864179   2.786682
     8  H    3.407159   2.169548   1.093091   4.283277   3.829238
     9  H    2.925840   2.166725   1.096078   3.929057   2.979824
                    6          7          8          9
     6  H    0.000000
     7  H    3.000354   0.000000
     8  H    2.410660   1.766285   0.000000
     9  H    2.911664   1.764083   1.763544   0.000000
 Stoichiometry    C3H6
 Framework group  C1[X(C3H6)]
 Deg. of freedom    21
 Full point group                 C1      NOp   1
 Largest Abelian subgroup         C1      NOp   1
 Largest concise Abelian subgroup C1      NOp   1
                         Standard orientation:                         
 ---------------------------------------------------------------------
 Center     Atomic      Atomic             Coordinates (Angstroms)
 Number     Number       Type             X           Y           Z
 ---------------------------------------------------------------------
      1          6           0        1.282693   -0.225873    0.000656
      2          6           0        0.139410    0.461264   -0.001747
      3          6           0       -1.241114   -0.157793   -0.000110
      4          1           0        2.247344    0.272528    0.005388
      5          1           0        1.296177   -1.313872   -0.004488
      6          1           0        0.186887    1.549716   -0.001928
      7          1           0       -1.345106   -0.905593   -0.793496
      8          1           0       -2.021112    0.593442   -0.148768
      9          1           0       -1.450123   -0.661813    0.950503
 ---------------------------------------------------------------------
 Rotational constants (GHZ):          46.4345543           9.2087947           8.0694403
 Standard basis: 6-31G(d,p) (6D, 7F)
 There are    75 symmetry adapted cartesian basis functions of A   symmetry.
 There are    75 symmetry adapted basis functions of A   symmetry.
    75 basis functions,   126 primitive gaussians,    75 cartesian basis functions
    12 alpha electrons       12 beta electrons
       nuclear repulsion energy        70.4526554192 Hartrees.
 NAtoms=    9 NActive=    9 NUniq=    9 SFac= 1.00D+00 NAtFMM=   60 NAOKFM=F Big=F
 Integral buffers will be    131072 words long.
 Raffenetti 2 integral format.
 Two-electron integral symmetry is turned on.
 One-electron integrals computed using PRISM.
 NBasis=    75 RedAO= T EigKep=  5.31D-03  NBF=    75
 NBsUse=    75 1.00D-06 EigRej= -1.00D+00 NBFU=    75
 Initial guess from the checkpoint file:  "C=CC.chk"
 B after Tr=     0.000000   -0.000000    0.000000
         Rot=    0.999981    0.006161    0.000865   -0.000372 Ang=   0.71 deg.
 ExpMin= 1.61D-01 ExpMax= 3.05D+03 ExpMxC= 4.57D+02 IAcc=3 IRadAn=         5 AccDes= 0.00D+00
 Harris functional with IExCor=  402 and IRadAn=       5 diagonalized for initial guess.
 HarFok:  IExCor=  402 AccDes= 0.00D+00 IRadAn=         5 IDoV= 1 UseB2=F ITyADJ=14
 ICtDFT=  3500011 ScaDFX=  1.000000  1.000000  1.000000  1.000000
 FoFCou: FMM=F IPFlag=           0 FMFlag=      100000 FMFlg1=           0
         NFxFlg=           0 DoJE=T BraDBF=F KetDBF=T FulRan=T
         wScrn=  0.000000 ICntrl=       500 IOpCl=  0 I1Cent=   200000004 NGrid=           0
         NMat0=    1 NMatS0=      1 NMatT0=    0 NMatD0=    1 NMtDS0=    0 NMtDT0=    0
 Petite list used in FoFCou.
 Keep R1 ints in memory in canonical form, NReq=11245314.
 Requested convergence on RMS density matrix=1.00D-08 within 128 cycles.
 Requested convergence on MAX density matrix=1.00D-06.
 Requested convergence on             energy=1.00D-06.
 Level shift goal  0.100 maximum shift  0.100.
 No special actions if energy rises.
 Dynamic level shift is on during FON iterations.
 Integral accuracy reduced to 1.0D-05 until final iterations.
 Initial convergence to 1.0D-05 achieved.  Increase integral accuracy.
 SCF Done:  E(RB3LYP) =  -117.913420096     A.U. after    9 cycles
            NFock=  9  Conv=0.69D-08     -V/T= 2.0105
 Calling FoFJK, ICntrl=      2127 FMM=F ISym2X=0 I1Cent= 0 IOpClX= 0 NMat=1 NMatS=1 NMatT=0.
 ***** Axes restored to original set *****
 -------------------------------------------------------------------
 Center     Atomic                   Forces (Hartrees/Bohr)
 Number     Number              X              Y              Z
 -------------------------------------------------------------------
      1        6           0.001332309    0.000241929    0.000486152
      2        6          -0.000418692   -0.000930213    0.000234048
      3        6          -0.000898612    0.000791042    0.000294298
      4        1           0.000015988   -0.000061370   -0.000082404
      5        1          -0.000204845    0.000105455    0.000020806
      6        1           0.000085490   -0.000072919   -0.000614977
      7        1          -0.000202618   -0.000371479   -0.000267020
      8        1          -0.000029553    0.000203202    0.000239786
      9        1           0.000320532    0.000094353   -0.000310689
 -------------------------------------------------------------------
 Cartesian Forces:  Max     0.001332309 RMS     0.000459408

 GradGradGradGradGradGradGradGradGradGradGradGradGradGradGradGradGradGrad
 Berny optimization.
 Using GEDIIS/GDIIS optimizer.
 FormGI is forming the generalized inverse of G from B-inverse, IUseBI=4.
 Internal  Forces:  Max     0.001167028 RMS     0.000359960
 Search for a local minimum.
 Step number   2 out of a maximum of   40
 All quantities printed in internal units (Hartrees-Bohrs-Radians)
 Mixed Optimization -- En-DIIS/RFO-DIIS
 Update second derivatives using D2CorX and points    1    2
 DE= -1.71D-04 DEPred=-1.37D-04 R= 1.25D+00
 TightC=F SS=  1.41D+00  RLast= 1.03D-01 DXNew= 5.0454D-01 3.0800D-01
 Trust test= 1.25D+00 RLast= 1.03D-01 DXMaxT set to 3.08D-01
 ITU=  1  0
 Use linear search instead of GDIIS.
     Eigenvalues ---    0.00343   0.01650   0.03033   0.03042   0.07058
     Eigenvalues ---    0.07104   0.15526   0.16000   0.16000   0.16000
     Eigenvalues ---    0.16000   0.16637   0.21788   0.33440   0.34164
     Eigenvalues ---    0.34276   0.34487   0.35160   0.35351   0.36846
     Eigenvalues ---    0.76351
 RFO step:  Lambda=-1.87616243D-04 EMin= 3.42570494D-03
 Quartic linear search produced a step of  0.35622.
 Iteration  1 RMS(Cart)=  0.04810003 RMS(Int)=  0.00124821
 Iteration  2 RMS(Cart)=  0.00134731 RMS(Int)=  0.00000997
 Iteration  3 RMS(Cart)=  0.00000092 RMS(Int)=  0.00000995
 Variable       Old X    -DE/DX   Delta X   Delta X   Delta X     New X
                                 (Linear)    (Quad)   (Total)
    R1        2.52068  -0.00117   0.00391   0.00086   0.00477   2.52546
    R2        2.05188  -0.00005   0.00162   0.00123   0.00285   2.05473
    R3        2.05620  -0.00004   0.00088   0.00063   0.00152   2.05772
    R4        2.85910  -0.00108   0.00304  -0.00191   0.00113   2.86023
    R5        2.05883  -0.00002   0.00140   0.00115   0.00255   2.06139
    R6        2.06964   0.00006  -0.00060  -0.00030  -0.00090   2.06874
    R7        2.06564   0.00009   0.00021   0.00054   0.00075   2.06639
    R8        2.07129   0.00022   0.00079   0.00157   0.00237   2.07365
    A1        2.12354  -0.00012   0.00108  -0.00001   0.00108   2.12461
    A2        2.12434   0.00029   0.00178   0.00400   0.00578   2.13012
    A3        2.03531  -0.00018  -0.00286  -0.00399  -0.00685   2.02846
    A4        2.17888   0.00031   0.00340   0.00488   0.00827   2.18715
    A5        2.06837  -0.00005  -0.00076  -0.00071  -0.00148   2.06690
    A6        2.03593  -0.00026  -0.00262  -0.00417  -0.00679   2.02913
    A7        1.94468   0.00016   0.00256   0.00409   0.00663   1.95131
    A8        1.94954  -0.00033   0.00095  -0.00211  -0.00116   1.94838
    A9        1.94237   0.00014   0.00306   0.00360   0.00664   1.94901
   A10        1.87862   0.00016  -0.00229  -0.00018  -0.00248   1.87614
   A11        1.87150  -0.00012  -0.00258  -0.00298  -0.00560   1.86590
   A12        1.87330  -0.00001  -0.00212  -0.00280  -0.00492   1.86837
    D1       -3.13501   0.00011  -0.00081   0.00527   0.00446  -3.13055
    D2        0.00322   0.00004   0.00214   0.00240   0.00454   0.00776
    D3        0.00924   0.00005  -0.00034   0.00329   0.00294   0.01219
    D4       -3.13571  -0.00001   0.00260   0.00042   0.00303  -3.13268
    D5       -0.89538   0.00033   0.01537   0.08103   0.09639  -0.79899
    D6       -2.99721   0.00025   0.01587   0.07989   0.09576  -2.90145
    D7        1.19252   0.00038   0.01584   0.08242   0.09828   1.29079
    D8        2.24952   0.00040   0.01246   0.08384   0.09629   2.34581
    D9        0.14769   0.00031   0.01296   0.08270   0.09567   0.24336
   D10       -1.94577   0.00045   0.01294   0.08523   0.09818  -1.84759
         Item               Value     Threshold  Converged?
 Maximum Force            0.001167     0.000450     NO 
 RMS     Force            0.000360     0.000300     NO 
 Maximum Displacement     0.115512     0.001800     NO 
 RMS     Displacement     0.048121     0.001200     NO 
 Predicted change in Energy=-1.086725D-04
 GradGradGradGradGradGradGradGradGradGradGradGradGradGradGradGradGradGrad

                          Input orientation:                          
 ---------------------------------------------------------------------
 Center     Atomic      Atomic             Coordinates (Angstroms)
 Number     Number       Type             X           Y           Z
 ---------------------------------------------------------------------
      1          6           0       -1.300021    0.154403    0.031603
      2          6           0       -0.004669    0.476250   -0.035319
      3          6           0        1.144311   -0.508506   -0.003808
      4          1           0       -2.079964    0.911043   -0.006336
      5          1           0       -1.634804   -0.877256    0.128035
      6          1           0        0.264769    1.529650   -0.122962
      7          1           0        1.016730   -1.257037    0.784774
      8          1           0        2.100324   -0.007120    0.170438
      9          1           0        1.235593   -1.055103   -0.950926
 ---------------------------------------------------------------------
                    Distance matrix (angstroms):
                    1          2          3          4          5
     1  C    0.000000
     2  C    1.336413   0.000000
     3  C    2.532876   1.513569   0.000000
     4  H    1.087316   2.120551   3.522936   0.000000
     5  H    1.088898   2.125089   2.806571   1.847765   0.000000
     6  H    2.088962   1.090839   2.223032   2.427767   3.076455
     7  H    2.815450   2.172578   1.094732   3.862116   2.757929
     8  H    3.407009   2.169557   1.093485   4.283583   3.835377
     9  H    2.976173   2.172931   1.097330   3.968740   3.071638
                    6          7          8          9
     6  H    0.000000
     7  H    3.025732   0.000000
     8  H    2.411848   1.764618   0.000000
     9  H    2.882529   1.761060   1.761672   0.000000
 Stoichiometry    C3H6
 Framework group  C1[X(C3H6)]
 Deg. of freedom    21
 Full point group                 C1      NOp   1
 Largest Abelian subgroup         C1      NOp   1
 Largest concise Abelian subgroup C1      NOp   1
                         Standard orientation:                         
 ---------------------------------------------------------------------
 Center     Atomic      Atomic             Coordinates (Angstroms)
 Number     Number       Type             X           Y           Z
 ---------------------------------------------------------------------
      1          6           0        1.287861   -0.224197    0.000572
      2          6           0        0.138607    0.457866   -0.002068
      3          6           0       -1.244141   -0.157680   -0.000226
      4          1           0        2.251587    0.279203    0.009237
      5          1           0        1.313706   -1.312762   -0.006867
      6          1           0        0.181699    1.547853   -0.002723
      7          1           0       -1.327118   -0.973187   -0.725830
      8          1           0       -2.013905    0.579471   -0.244731
      9          1           0       -1.499926   -0.576509    0.981248
 ---------------------------------------------------------------------
 Rotational constants (GHZ):          46.6589487           9.1463486           8.0266922
 Standard basis: 6-31G(d,p) (6D, 7F)
 There are    75 symmetry adapted cartesian basis functions of A   symmetry.
 There are    75 symmetry adapted basis functions of A   symmetry.
    75 basis functions,   126 primitive gaussians,    75 cartesian basis functions
    12 alpha electrons       12 beta electrons
       nuclear repulsion energy        70.3421418411 Hartrees.
 NAtoms=    9 NActive=    9 NUniq=    9 SFac= 1.00D+00 NAtFMM=   60 NAOKFM=F Big=F
 Integral buffers will be    131072 words long.
 Raffenetti 2 integral format.
 Two-electron integral symmetry is turned on.
 One-electron integrals computed using PRISM.
 NBasis=    75 RedAO= T EigKep=  5.32D-03  NBF=    75
 NBsUse=    75 1.00D-06 EigRej= -1.00D+00 NBFU=    75
 Initial guess from the checkpoint file:  "C=CC.chk"
 B after Tr=     0.000000    0.000000    0.000000
         Rot=    0.999885    0.015051    0.001773   -0.000433 Ang=   1.74 deg.
 ExpMin= 1.61D-01 ExpMax= 3.05D+03 ExpMxC= 4.57D+02 IAcc=3 IRadAn=         5 AccDes= 0.00D+00
 Harris functional with IExCor=  402 and IRadAn=       5 diagonalized for initial guess.
 HarFok:  IExCor=  402 AccDes= 0.00D+00 IRadAn=         5 IDoV= 1 UseB2=F ITyADJ=14
 ICtDFT=  3500011 ScaDFX=  1.000000  1.000000  1.000000  1.000000
 FoFCou: FMM=F IPFlag=           0 FMFlag=      100000 FMFlg1=           0
         NFxFlg=           0 DoJE=T BraDBF=F KetDBF=T FulRan=T
         wScrn=  0.000000 ICntrl=       500 IOpCl=  0 I1Cent=   200000004 NGrid=           0
         NMat0=    1 NMatS0=      1 NMatT0=    0 NMatD0=    1 NMtDS0=    0 NMtDT0=    0
 Petite list used in FoFCou.
 Keep R1 ints in memory in canonical form, NReq=11245314.
 Requested convergence on RMS density matrix=1.00D-08 within 128 cycles.
 Requested convergence on MAX density matrix=1.00D-06.
 Requested convergence on             energy=1.00D-06.
 Level shift goal  0.100 maximum shift  0.100.
 No special actions if energy rises.
 Dynamic level shift is on during FON iterations.
 Integral accuracy reduced to 1.0D-05 until final iterations.
 Initial convergence to 1.0D-05 achieved.  Increase integral accuracy.
 SCF Done:  E(RB3LYP) =  -117.913650709     A.U. after   10 cycles
            NFock= 10  Conv=0.23D-08     -V/T= 2.0106
 Calling FoFJK, ICntrl=      2127 FMM=F ISym2X=0 I1Cent= 0 IOpClX= 0 NMat=1 NMatS=1 NMatT=0.
 ***** Axes restored to original set *****
 -------------------------------------------------------------------
 Center     Atomic                   Forces (Hartrees/Bohr)
 Number     Number              X              Y              Z
 -------------------------------------------------------------------
      1        6           0.002863512    0.000615894    0.000445741
      2        6          -0.001999931   -0.001149192    0.000400433
      3        6          -0.000881928    0.000180005    0.000158819
      4        1           0.001087271   -0.000361289   -0.000040678
      5        1           0.000673644    0.000420214    0.000010202
      6        1          -0.000388627   -0.000854751   -0.000928587
      7        1          -0.000965176   -0.000307987   -0.000022215
      8        1          -0.000244003    0.000433714    0.000300248
      9        1          -0.000144763    0.001023392   -0.000323962
 -------------------------------------------------------------------
 Cartesian Forces:  Max     0.002863512 RMS     0.000888622

 GradGradGradGradGradGradGradGradGradGradGradGradGradGradGradGradGradGrad
 Berny optimization.
 Using GEDIIS/GDIIS optimizer.
 FormGI is forming the generalized inverse of G from B-inverse, IUseBI=4.
 Internal  Forces:  Max     0.004624074 RMS     0.001109940
 Search for a local minimum.
 Step number   3 out of a maximum of   40
 All quantities printed in internal units (Hartrees-Bohrs-Radians)
 Mixed Optimization -- RFO/linear search
 Update second derivatives using D2CorX and points    1    2    3
 DE= -2.31D-04 DEPred=-1.09D-04 R= 2.12D+00
 TightC=F SS=  1.41D+00  RLast= 2.38D-01 DXNew= 5.1799D-01 7.1396D-01
 Trust test= 2.12D+00 RLast= 2.38D-01 DXMaxT set to 5.18D-01
 ITU=  1  1  0
 Use linear search instead of GDIIS.
     Eigenvalues ---   -0.00565   0.01643   0.02740   0.03033   0.04674
     Eigenvalues ---    0.07033   0.07339   0.15993   0.16000   0.16000
     Eigenvalues ---    0.16000   0.16296   0.20413   0.32497   0.33460
     Eigenvalues ---    0.34170   0.34485   0.34681   0.35162   0.35429
     Eigenvalues ---    0.59733
 RFO step:  Lambda=-6.36512913D-03 EMin=-5.64955153D-03
 Skip linear search -- no minimum in search direction.
 Iteration  1 RMS(Cart)=  0.15849582 RMS(Int)=  0.08958652
 Iteration  2 RMS(Cart)=  0.09630337 RMS(Int)=  0.00596974
 Iteration  3 RMS(Cart)=  0.00611570 RMS(Int)=  0.00167456
 Iteration  4 RMS(Cart)=  0.00002502 RMS(Int)=  0.00167438
 Iteration  5 RMS(Cart)=  0.00000003 RMS(Int)=  0.00167438
 Variable       Old X    -DE/DX   Delta X   Delta X   Delta X     New X
                                 (Linear)    (Quad)   (Total)
    R1        2.52546  -0.00462   0.00000  -0.06194  -0.06194   2.46351
    R2        2.05473  -0.00103   0.00000  -0.03982  -0.03982   2.01491
    R3        2.05772  -0.00060   0.00000  -0.02472  -0.02472   2.03300
    R4        2.86023  -0.00256   0.00000  -0.04174  -0.04174   2.81849
    R5        2.06139  -0.00085   0.00000  -0.03407  -0.03407   2.02732
    R6        2.06874   0.00031   0.00000   0.00574   0.00574   2.07449
    R7        2.06639   0.00003   0.00000  -0.00155  -0.00155   2.06484
    R8        2.07365  -0.00024   0.00000  -0.02442  -0.02442   2.04923
    A1        2.12461  -0.00034   0.00000  -0.00973  -0.01069   2.11392
    A2        2.13012  -0.00036   0.00000  -0.08337  -0.08433   2.04579
    A3        2.02846   0.00069   0.00000   0.09303   0.09207   2.12053
    A4        2.18715  -0.00095   0.00000  -0.09225  -0.09226   2.09489
    A5        2.06690   0.00032   0.00000   0.01746   0.01746   2.08435
    A6        2.02913   0.00063   0.00000   0.07478   0.07477   2.10391
    A7        1.95131  -0.00062   0.00000  -0.07940  -0.08163   1.86968
    A8        1.94838  -0.00038   0.00000   0.03260   0.03270   1.98108
    A9        1.94901  -0.00087   0.00000  -0.12455  -0.12736   1.82166
   A10        1.87614   0.00076   0.00000   0.06779   0.06823   1.94437
   A11        1.86590   0.00077   0.00000   0.08808   0.08190   1.94780
   A12        1.86837   0.00049   0.00000   0.02835   0.02804   1.89641
    D1       -3.13055   0.00009   0.00000  -0.02940  -0.02942   3.12321
    D2        0.00776  -0.00003   0.00000  -0.03529  -0.03520  -0.02744
    D3        0.01219   0.00012   0.00000   0.05074   0.05065   0.06283
    D4       -3.13268  -0.00001   0.00000   0.04484   0.04487  -3.08782
    D5       -0.79899   0.00059   0.00000   0.41549   0.41258  -0.38642
    D6       -2.90145   0.00031   0.00000   0.36107   0.36133  -2.54012
    D7        1.29079   0.00055   0.00000   0.38785   0.39039   1.68119
    D8        2.34581   0.00071   0.00000   0.42136   0.41852   2.76434
    D9        0.24336   0.00043   0.00000   0.36694   0.36728   0.61063
   D10       -1.84759   0.00067   0.00000   0.39372   0.39634  -1.45125
         Item               Value     Threshold  Converged?
 Maximum Force            0.004624     0.000450     NO 
 RMS     Force            0.001110     0.000300     NO 
 Maximum Displacement     0.554186     0.001800     NO 
 RMS     Displacement     0.229953     0.001200     NO 
 Predicted change in Energy=-5.004350D-03
 GradGradGradGradGradGradGradGradGradGradGradGradGradGradGradGradGradGrad

                          Input orientation:                          
 ---------------------------------------------------------------------
 Center     Atomic      Atomic             Coordinates (Angstroms)
 Number     Number       Type             X           Y           Z
 ---------------------------------------------------------------------
      1          6           0       -1.227156    0.140767    0.076831
      2          6           0        0.011853    0.499550   -0.111834
      3          6           0        1.105827   -0.508159   -0.001122
      4          1           0       -2.021213    0.849945    0.018343
      5          1           0       -1.405020   -0.879413    0.368335
      6          1           0        0.233722    1.520698   -0.354631
      7          1           0        0.723467   -1.334261    0.612438
      8          1           0        2.032819   -0.101661    0.410419
      9          1           0        1.287970   -0.821141   -1.023280
 ---------------------------------------------------------------------
                    Distance matrix (angstroms):
                    1          2          3          4          5
     1  C    0.000000
     2  C    1.303634   0.000000
     3  C    2.422807   1.491481   0.000000
     4  H    1.066246   2.067142   3.409282   0.000000
     5  H    1.075815   2.034608   2.564894   1.868921   0.000000
     6  H    2.055366   1.072809   2.236469   2.381963   2.994776
     7  H    2.503500   2.096146   1.097771   3.557664   2.190190
     8  H    3.285953   2.172212   1.092666   4.182637   3.524969
     9  H    2.908843   2.050228   1.084408   3.850740   3.031862
                    6          7          8          9
     6  H    0.000000
     7  H    3.053827   0.000000
     8  H    2.540492   1.809562   0.000000
     9  H    2.653816   1.804863   1.768599   0.000000
 Stoichiometry    C3H6
 Framework group  C1[X(C3H6)]
 Deg. of freedom    21
 Full point group                 C1      NOp   1
 Largest Abelian subgroup         C1      NOp   1
 Largest concise Abelian subgroup C1      NOp   1
                         Standard orientation:                         
 ---------------------------------------------------------------------
 Center     Atomic      Atomic             Coordinates (Angstroms)
 Number     Number       Type             X           Y           Z
 ---------------------------------------------------------------------
      1          6           0        1.222911   -0.238597    0.010670
      2          6           0        0.141455    0.489008   -0.011794
      3          6           0       -1.198757   -0.165398   -0.001870
      4          1           0        2.189734    0.210387   -0.012712
      5          1           0        1.098169   -1.306591   -0.024058
      6          1           0        0.225940    1.558348   -0.028905
      7          1           0       -1.061062   -1.189713   -0.371895
      8          1           0       -1.950369    0.371717   -0.585399
      9          1           0       -1.496064   -0.154224    1.040927
 ---------------------------------------------------------------------
 Rotational constants (GHZ):          44.8912350          10.0447915           8.6525093
 Standard basis: 6-31G(d,p) (6D, 7F)
 There are    75 symmetry adapted cartesian basis functions of A   symmetry.
 There are    75 symmetry adapted basis functions of A   symmetry.
    75 basis functions,   126 primitive gaussians,    75 cartesian basis functions
    12 alpha electrons       12 beta electrons
       nuclear repulsion energy        72.0716756709 Hartrees.
 NAtoms=    9 NActive=    9 NUniq=    9 SFac= 1.00D+00 NAtFMM=   60 NAOKFM=F Big=F
 Integral buffers will be    131072 words long.
 Raffenetti 2 integral format.
 Two-electron integral symmetry is turned on.
 One-electron integrals computed using PRISM.
 NBasis=    75 RedAO= T EigKep=  4.21D-03  NBF=    75
 NBsUse=    75 1.00D-06 EigRej= -1.00D+00 NBFU=    75
 Initial guess from the checkpoint file:  "C=CC.chk"
 B after Tr=    -0.000000    0.000000   -0.000000
         Rot=    0.997512    0.070242    0.005003    0.003206 Ang=   8.08 deg.
 ExpMin= 1.61D-01 ExpMax= 3.05D+03 ExpMxC= 4.57D+02 IAcc=3 IRadAn=         5 AccDes= 0.00D+00
 Harris functional with IExCor=  402 and IRadAn=       5 diagonalized for initial guess.
 HarFok:  IExCor=  402 AccDes= 0.00D+00 IRadAn=         5 IDoV= 1 UseB2=F ITyADJ=14
 ICtDFT=  3500011 ScaDFX=  1.000000  1.000000  1.000000  1.000000
 FoFCou: FMM=F IPFlag=           0 FMFlag=      100000 FMFlg1=           0
         NFxFlg=           0 DoJE=T BraDBF=F KetDBF=T FulRan=T
         wScrn=  0.000000 ICntrl=       500 IOpCl=  0 I1Cent=   200000004 NGrid=           0
         NMat0=    1 NMatS0=      1 NMatT0=    0 NMatD0=    1 NMtDS0=    0 NMtDT0=    0
 Petite list used in FoFCou.
 Keep R1 ints in memory in canonical form, NReq=11245314.
 Requested convergence on RMS density matrix=1.00D-08 within 128 cycles.
 Requested convergence on MAX density matrix=1.00D-06.
 Requested convergence on             energy=1.00D-06.
 Level shift goal  0.100 maximum shift  0.100.
 No special actions if energy rises.
 Dynamic level shift is on during FON iterations.
 Integral accuracy reduced to 1.0D-05 until final iterations.
 Initial convergence to 1.0D-05 achieved.  Increase integral accuracy.
 SCF Done:  E(RB3LYP) =  -117.908975980     A.U. after   13 cycles
            NFock= 13  Conv=0.19D-08     -V/T= 2.0084
 Calling FoFJK, ICntrl=      2127 FMM=F ISym2X=0 I1Cent= 0 IOpClX= 0 NMat=1 NMatS=1 NMatT=0.
 ***** Axes restored to original set *****
 -------------------------------------------------------------------
 Center     Atomic                   Forces (Hartrees/Bohr)
 Number     Number              X              Y              Z
 -------------------------------------------------------------------
      1        6          -0.018901815   -0.004459565    0.008149127
      2        6           0.021534486    0.004758492    0.004570387
      3        6          -0.002192765    0.006870438   -0.000313973
      4        1          -0.014611408    0.004133625   -0.001843248
      5        1          -0.011566685   -0.006266073    0.001344972
      6        1           0.006340121    0.009960716   -0.004821187
      7        1           0.009026796   -0.002052070   -0.004440133
      8        1           0.000551502   -0.001745457    0.001719883
      9        1           0.009819769   -0.011200105   -0.004365830
 -------------------------------------------------------------------
 Cartesian Forces:  Max     0.021534486 RMS     0.008448304

 GradGradGradGradGradGradGradGradGradGradGradGradGradGradGradGradGradGrad
 Berny optimization.
 Using GEDIIS/GDIIS optimizer.
 FormGI is forming the generalized inverse of G from B-inverse, IUseBI=4.
 Internal  Forces:  Max     0.045766398 RMS     0.012007847
 Search for a local minimum.
 Step number   4 out of a maximum of   40
 All quantities printed in internal units (Hartrees-Bohrs-Radians)
 Mixed Optimization -- RFO/linear search
 Update second derivatives using D2CorX and points    1    2    4    3
 DE=  4.67D-03 DEPred=-5.00D-03 R=-9.34D-01
 Trust test=-9.34D-01 RLast= 1.00D+00 DXMaxT set to 2.59D-01
 ITU= -1  1  1  0
 Use linear search instead of GDIIS.
     Eigenvalues ---   -0.00429   0.01593   0.03033   0.03109   0.07178
     Eigenvalues ---    0.08104   0.11309   0.15991   0.16000   0.16000
     Eigenvalues ---    0.16017   0.16185   0.20869   0.32432   0.34081
     Eigenvalues ---    0.34340   0.34481   0.35157   0.35265   0.35690
     Eigenvalues ---    0.66624
 RFO step:  Lambda=-5.47708125D-03 EMin=-4.29250450D-03
 Quartic linear search produced a step of -0.80989.
 Iteration  1 RMS(Cart)=  0.13606352 RMS(Int)=  0.00831324
 Iteration  2 RMS(Cart)=  0.00971625 RMS(Int)=  0.00081470
 Iteration  3 RMS(Cart)=  0.00008502 RMS(Int)=  0.00081267
 Iteration  4 RMS(Cart)=  0.00000014 RMS(Int)=  0.00081267
 Variable       Old X    -DE/DX   Delta X   Delta X   Delta X     New X
                                 (Linear)    (Quad)   (Total)
    R1        2.46351   0.04577   0.05017   0.01277   0.06294   2.52645
    R2        2.01491   0.01373   0.03225   0.01200   0.04425   2.05916
    R3        2.03300   0.00822   0.02002   0.00673   0.02675   2.05975
    R4        2.81849   0.01756   0.03381  -0.00474   0.02907   2.84756
    R5        2.02732   0.01188   0.02759   0.01069   0.03828   2.06560
    R6        2.07449  -0.00408  -0.00465  -0.00190  -0.00655   2.06794
    R7        2.06484   0.00047   0.00125   0.00315   0.00440   2.06924
    R8        2.04923   0.00900   0.01978   0.01108   0.03086   2.08009
    A1        2.11392   0.00160   0.00866   0.00189   0.01061   2.12453
    A2        2.04579   0.00985   0.06829   0.03173   0.10008   2.14587
    A3        2.12053  -0.01112  -0.07457  -0.03331  -0.10782   2.01271
    A4        2.09489   0.01804   0.07472   0.03780   0.11252   2.20741
    A5        2.08435  -0.00478  -0.01414  -0.00662  -0.02075   2.06360
    A6        2.10391  -0.01326  -0.06056  -0.03121  -0.09176   2.01215
    A7        1.86968   0.01112   0.06611   0.03358   0.09832   1.96800
    A8        1.98108  -0.00303  -0.02648  -0.01374  -0.03970   1.94138
    A9        1.82166   0.01760   0.10314   0.03448   0.13629   1.95795
   A10        1.94437  -0.00672  -0.05526  -0.01014  -0.06498   1.87939
   A11        1.94780  -0.01079  -0.06633  -0.02456  -0.09381   1.85400
   A12        1.89641  -0.00694  -0.02271  -0.01749  -0.03966   1.85675
    D1        3.12321   0.00294   0.02383   0.01366   0.03751  -3.12246
    D2       -0.02744   0.00203   0.02851   0.00979   0.03827   0.01083
    D3        0.06283  -0.00100  -0.04102   0.01094  -0.03005   0.03278
    D4       -3.08782  -0.00191  -0.03634   0.00707  -0.02929  -3.11711
    D5       -0.38642  -0.00098  -0.33414   0.25962  -0.07579  -0.46221
    D6       -2.54012   0.00152  -0.29264   0.25722  -0.03545  -2.57557
    D7        1.68119   0.00040  -0.31617   0.26383  -0.05098   1.63020
    D8        2.76434  -0.00011  -0.33896   0.26340  -0.07687   2.68747
    D9        0.61063   0.00239  -0.29745   0.26100  -0.03652   0.57411
   D10       -1.45125   0.00127  -0.32099   0.26761  -0.05206  -1.50330
         Item               Value     Threshold  Converged?
 Maximum Force            0.045766     0.000450     NO 
 RMS     Force            0.012008     0.000300     NO 
 Maximum Displacement     0.471353     0.001800     NO 
 RMS     Displacement     0.140940     0.001200     NO 
 Predicted change in Energy=-3.131402D-03
 GradGradGradGradGradGradGradGradGradGradGradGradGradGradGradGradGradGrad

                          Input orientation:                          
 ---------------------------------------------------------------------
 Center     Atomic      Atomic             Coordinates (Angstroms)
 Number     Number       Type             X           Y           Z
 ---------------------------------------------------------------------
      1          6           0       -1.303069    0.161156    0.094988
      2          6           0       -0.011223    0.455344   -0.083901
      3          6           0        1.144096   -0.510171   -0.023411
      4          1           0       -2.080036    0.921092    0.016360
      5          1           0       -1.654449   -0.841172    0.339753
      6          1           0        0.257431    1.491714   -0.304257
      7          1           0        0.938292   -1.377320    0.611569
      8          1           0        2.047390   -0.024201    0.359878
      9          1           0        1.403838   -0.910118   -1.015479
 ---------------------------------------------------------------------
                    Distance matrix (angstroms):
                    1          2          3          4          5
     1  C    0.000000
     2  C    1.336942   0.000000
     3  C    2.540337   1.506864   0.000000
     4  H    1.089662   2.122960   3.527764   0.000000
     5  H    1.089972   2.135562   2.841356   1.841543   0.000000
     6  H    2.089244   1.093067   2.207394   2.427377   3.084216
     7  H    2.767212   2.178052   1.094304   3.840218   2.661511
     8  H    3.366021   2.159812   1.094996   4.248203   3.790970
     9  H    3.115784   2.175941   1.100738   4.068833   3.345823
                    6          7          8          9
     6  H    0.000000
     7  H    3.087663   0.000000
     8  H    2.437832   1.767590   0.000000
     9  H    2.754792   1.755647   1.758014   0.000000
 Stoichiometry    C3H6
 Framework group  C1[X(C3H6)]
 Deg. of freedom    21
 Full point group                 C1      NOp   1
 Largest Abelian subgroup         C1      NOp   1
 Largest concise Abelian subgroup C1      NOp   1
                         Standard orientation:                         
 ---------------------------------------------------------------------
 Center     Atomic      Atomic             Coordinates (Angstroms)
 Number     Number       Type             X           Y           Z
 ---------------------------------------------------------------------
      1          6           0        1.294359   -0.218512    0.002428
      2          6           0        0.134765    0.446856   -0.003864
      3          6           0       -1.245262   -0.158253   -0.000867
      4          1           0        2.252544    0.300160    0.017340
      5          1           0        1.353610   -1.306655   -0.019320
      6          1           0        0.165499    1.539491   -0.004039
      7          1           0       -1.269736   -1.158793   -0.443387
      8          1           0       -1.953779    0.467333   -0.553734
      9          1           0       -1.651306   -0.262081    1.016960
 ---------------------------------------------------------------------
 Rotational constants (GHZ):          47.4175745           9.0796081           7.9942017
 Standard basis: 6-31G(d,p) (6D, 7F)
 There are    75 symmetry adapted cartesian basis functions of A   symmetry.
 There are    75 symmetry adapted basis functions of A   symmetry.
    75 basis functions,   126 primitive gaussians,    75 cartesian basis functions
    12 alpha electrons       12 beta electrons
       nuclear repulsion energy        70.3106824123 Hartrees.
 NAtoms=    9 NActive=    9 NUniq=    9 SFac= 1.00D+00 NAtFMM=   60 NAOKFM=F Big=F
 Integral buffers will be    131072 words long.
 Raffenetti 2 integral format.
 Two-electron integral symmetry is turned on.
 One-electron integrals computed using PRISM.
 NBasis=    75 RedAO= T EigKep=  5.08D-03  NBF=    75
 NBsUse=    75 1.00D-06 EigRej= -1.00D+00 NBFU=    75
 Lowest energy guess from the checkpoint file:  "C=CC.chk"
 B after Tr=    -0.000000    0.000000   -0.000000
         Rot=    0.998597    0.052611    0.005869   -0.001456 Ang=   6.07 deg.
 B after Tr=    -0.000000    0.000000    0.000000
         Rot=    0.999800   -0.019213    0.002159   -0.005145 Ang=  -2.29 deg.
 Keep R1 ints in memory in canonical form, NReq=11245314.
 Requested convergence on RMS density matrix=1.00D-08 within 128 cycles.
 Requested convergence on MAX density matrix=1.00D-06.
 Requested convergence on             energy=1.00D-06.
 Level shift goal  0.100 maximum shift  0.100.
 No special actions if energy rises.
 Dynamic level shift is on during FON iterations.
 Integral accuracy reduced to 1.0D-05 until final iterations.
 Initial convergence to 1.0D-05 achieved.  Increase integral accuracy.
 SCF Done:  E(RB3LYP) =  -117.914940294     A.U. after   11 cycles
            NFock= 11  Conv=0.28D-08     -V/T= 2.0107
 Calling FoFJK, ICntrl=      2127 FMM=F ISym2X=0 I1Cent= 0 IOpClX= 0 NMat=1 NMatS=1 NMatT=0.
 ***** Axes restored to original set *****
 -------------------------------------------------------------------
 Center     Atomic                   Forces (Hartrees/Bohr)
 Number     Number              X              Y              Z
 -------------------------------------------------------------------
      1        6           0.000985360    0.000782036    0.001376422
      2        6          -0.002460967    0.000506830   -0.000419805
      3        6           0.000958429   -0.002777711   -0.000186305
      4        1           0.002666540   -0.000690622   -0.000072991
      5        1           0.002623136    0.000409036   -0.000799773
      6        1          -0.001130780   -0.001887947   -0.001233396
      7        1          -0.002214041    0.000379978    0.000514273
      8        1          -0.000321812    0.000226693    0.000653146
      9        1          -0.001105865    0.003051707    0.000168430
 -------------------------------------------------------------------
 Cartesian Forces:  Max     0.003051707 RMS     0.001449609

 GradGradGradGradGradGradGradGradGradGradGradGradGradGradGradGradGradGrad
 Berny optimization.
 Using GEDIIS/GDIIS optimizer.
 FormGI is forming the generalized inverse of G from B-inverse, IUseBI=4.
 Internal  Forces:  Max     0.006106088 RMS     0.001979255
 Search for a local minimum.
 Step number   5 out of a maximum of   40
 All quantities printed in internal units (Hartrees-Bohrs-Radians)
 Mixed Optimization -- RFO/linear search
 Update second derivatives using D2CorX and points    4    3    5
 DE= -1.29D-03 DEPred=-3.13D-03 R= 4.12D-01
 Trust test= 4.12D-01 RLast= 8.26D-01 DXMaxT set to 2.59D-01
 ITU=  0 -1  1  1  0
 Use linear search instead of GDIIS.
     Eigenvalues ---   -0.01764   0.00219   0.01668   0.03062   0.03639
     Eigenvalues ---    0.06891   0.07025   0.15971   0.15999   0.16000
     Eigenvalues ---    0.16015   0.16202   0.20335   0.32444   0.33922
     Eigenvalues ---    0.34283   0.34474   0.35157   0.35211   0.35528
     Eigenvalues ---    0.67266
 RFO step:  Lambda=-2.04893606D-02 EMin=-1.76440285D-02
 Skip linear search -- no minimum in search direction.
 Maximum step size (   0.259) exceeded in Quadratic search.
    -- Step size scaled by   0.446
 Iteration  1 RMS(Cart)=  0.11041101 RMS(Int)=  0.00671339
 Iteration  2 RMS(Cart)=  0.00616774 RMS(Int)=  0.00104304
 Iteration  3 RMS(Cart)=  0.00001933 RMS(Int)=  0.00104287
 Iteration  4 RMS(Cart)=  0.00000002 RMS(Int)=  0.00104287
 Variable       Old X    -DE/DX   Delta X   Delta X   Delta X     New X
                                 (Linear)    (Quad)   (Total)
    R1        2.52645  -0.00611   0.00000  -0.01117  -0.01117   2.51529
    R2        2.05916  -0.00238   0.00000  -0.03042  -0.03042   2.02874
    R3        2.05975  -0.00140   0.00000  -0.01814  -0.01814   2.04161
    R4        2.84756  -0.00258   0.00000   0.01446   0.01446   2.86202
    R5        2.06560  -0.00182   0.00000  -0.02259  -0.02259   2.04300
    R6        2.06794   0.00041   0.00000  -0.00094  -0.00094   2.06700
    R7        2.06924   0.00006   0.00000  -0.00151  -0.00151   2.06774
    R8        2.08009  -0.00152   0.00000  -0.02870  -0.02870   2.05140
    A1        2.12453  -0.00030   0.00000   0.00077   0.00019   2.12472
    A2        2.14587  -0.00227   0.00000  -0.09784  -0.09843   2.04745
    A3        2.01271   0.00257   0.00000   0.09776   0.09718   2.10988
    A4        2.20741  -0.00353   0.00000  -0.09716  -0.09719   2.11022
    A5        2.06360   0.00121   0.00000   0.02684   0.02681   2.09041
    A6        2.01215   0.00232   0.00000   0.07023   0.07019   2.08234
    A7        1.96800  -0.00241   0.00000  -0.09178  -0.09317   1.87483
    A8        1.94138   0.00042   0.00000   0.03971   0.04028   1.98166
    A9        1.95795  -0.00281   0.00000  -0.08947  -0.09083   1.86711
   A10        1.87939   0.00123   0.00000   0.02430   0.02484   1.90423
   A11        1.85400   0.00288   0.00000   0.10203   0.09833   1.95232
   A12        1.85675   0.00111   0.00000   0.02738   0.02801   1.88476
    D1       -3.12246   0.00002   0.00000   0.01164   0.01153  -3.11093
    D2        0.01083  -0.00011   0.00000  -0.00256  -0.00248   0.00835
    D3        0.03278  -0.00032   0.00000  -0.05272  -0.05281  -0.02002
    D4       -3.11711  -0.00045   0.00000  -0.06693  -0.06682   3.09926
    D5       -0.46221   0.00078   0.00000   0.03106   0.02921  -0.43300
    D6       -2.57557   0.00059   0.00000   0.03571   0.03560  -2.53997
    D7        1.63020   0.00078   0.00000   0.03383   0.03560   1.66580
    D8        2.68747   0.00091   0.00000   0.04505   0.04333   2.73080
    D9        0.57411   0.00072   0.00000   0.04970   0.04972   0.62383
   D10       -1.50330   0.00091   0.00000   0.04782   0.04972  -1.45359
         Item               Value     Threshold  Converged?
 Maximum Force            0.006106     0.000450     NO 
 RMS     Force            0.001979     0.000300     NO 
 Maximum Displacement     0.374267     0.001800     NO 
 RMS     Displacement     0.111153     0.001200     NO 
 Predicted change in Energy=-3.035665D-03
 GradGradGradGradGradGradGradGradGradGradGradGradGradGradGradGradGradGrad

                          Input orientation:                          
 ---------------------------------------------------------------------
 Center     Atomic      Atomic             Coordinates (Angstroms)
 Number     Number       Type             X           Y           Z
 ---------------------------------------------------------------------
      1          6           0       -1.259579    0.155165    0.109076
      2          6           0        0.007209    0.507594   -0.097536
      3          6           0        1.122560   -0.513411   -0.012151
      4          1           0       -2.063320    0.861857    0.024674
      5          1           0       -1.456395   -0.886074    0.319531
      6          1           0        0.245200    1.531493   -0.350105
      7          1           0        0.776335   -1.323095    0.636658
      8          1           0        2.056512   -0.107902    0.388556
      9          1           0        1.313748   -0.859304   -1.023203
 ---------------------------------------------------------------------
                    Distance matrix (angstroms):
                    1          2          3          4          5
     1  C    0.000000
     2  C    1.331032   0.000000
     3  C    2.477151   1.514513   0.000000
     4  H    1.073562   2.104169   3.470237   0.000000
     5  H    1.080373   2.063587   2.626766   1.873648   0.000000
     6  H    2.090332   1.081111   2.250690   2.432722   3.031249
     7  H    2.570709   2.117079   1.093807   3.634857   2.297095
     8  H    3.338229   2.194257   1.094198   4.248042   3.598727
     9  H    2.988849   2.105306   1.085552   3.932560   3.078530
                    6          7          8          9
     6  H    0.000000
     7  H    3.066673   0.000000
     8  H    2.552271   1.782443   0.000000
     9  H    2.703843   1.805285   1.763340   0.000000
 Stoichiometry    C3H6
 Framework group  C1[X(C3H6)]
 Deg. of freedom    21
 Full point group                 C1      NOp   1
 Largest Abelian subgroup         C1      NOp   1
 Largest concise Abelian subgroup C1      NOp   1
                         Standard orientation:                         
 ---------------------------------------------------------------------
 Center     Atomic      Atomic             Coordinates (Angstroms)
 Number     Number       Type             X           Y           Z
 ---------------------------------------------------------------------
      1          6           0        1.254514   -0.238987   -0.004670
      2          6           0        0.142165    0.491964   -0.010743
      3          6           0       -1.221573   -0.166681    0.001778
      4          1           0        2.227716    0.213829    0.014608
      5          1           0        1.141744   -1.312940    0.028680
      6          1           0        0.208831    1.570995   -0.003864
      7          1           0       -1.105684   -1.167674   -0.423660
      8          1           0       -1.976488    0.380600   -0.570810
      9          1           0       -1.546756   -0.202583    1.036858
 ---------------------------------------------------------------------
 Rotational constants (GHZ):          44.5518398           9.6180560           8.3261169
 Standard basis: 6-31G(d,p) (6D, 7F)
 There are    75 symmetry adapted cartesian basis functions of A   symmetry.
 There are    75 symmetry adapted basis functions of A   symmetry.
    75 basis functions,   126 primitive gaussians,    75 cartesian basis functions
    12 alpha electrons       12 beta electrons
       nuclear repulsion energy        71.0425183932 Hartrees.
 NAtoms=    9 NActive=    9 NUniq=    9 SFac= 1.00D+00 NAtFMM=   60 NAOKFM=F Big=F
 Integral buffers will be    131072 words long.
 Raffenetti 2 integral format.
 Two-electron integral symmetry is turned on.
 One-electron integrals computed using PRISM.
 NBasis=    75 RedAO= T EigKep=  4.67D-03  NBF=    75
 NBsUse=    75 1.00D-06 EigRej= -1.00D+00 NBFU=    75
 Initial guess from the checkpoint file:  "C=CC.chk"
 B after Tr=     0.000000    0.000000    0.000000
         Rot=    0.999918    0.012080   -0.001360    0.004056 Ang=   1.47 deg.
 ExpMin= 1.61D-01 ExpMax= 3.05D+03 ExpMxC= 4.57D+02 IAcc=3 IRadAn=         5 AccDes= 0.00D+00
 Harris functional with IExCor=  402 and IRadAn=       5 diagonalized for initial guess.
 HarFok:  IExCor=  402 AccDes= 0.00D+00 IRadAn=         5 IDoV= 1 UseB2=F ITyADJ=14
 ICtDFT=  3500011 ScaDFX=  1.000000  1.000000  1.000000  1.000000
 FoFCou: FMM=F IPFlag=           0 FMFlag=      100000 FMFlg1=           0
         NFxFlg=           0 DoJE=T BraDBF=F KetDBF=T FulRan=T
         wScrn=  0.000000 ICntrl=       500 IOpCl=  0 I1Cent=   200000004 NGrid=           0
         NMat0=    1 NMatS0=      1 NMatT0=    0 NMatD0=    1 NMtDS0=    0 NMtDT0=    0
 Petite list used in FoFCou.
 Keep R1 ints in memory in canonical form, NReq=11245314.
 Requested convergence on RMS density matrix=1.00D-08 within 128 cycles.
 Requested convergence on MAX density matrix=1.00D-06.
 Requested convergence on             energy=1.00D-06.
 Level shift goal  0.100 maximum shift  0.100.
 No special actions if energy rises.
 Dynamic level shift is on during FON iterations.
 Integral accuracy reduced to 1.0D-05 until final iterations.
 Initial convergence to 1.0D-05 achieved.  Increase integral accuracy.
 SCF Done:  E(RB3LYP) =  -117.912562501     A.U. after   11 cycles
            NFock= 11  Conv=0.19D-08     -V/T= 2.0098
 Calling FoFJK, ICntrl=      2127 FMM=F ISym2X=0 I1Cent= 0 IOpClX= 0 NMat=1 NMatS=1 NMatT=0.
 ***** Axes restored to original set *****
 -------------------------------------------------------------------
 Center     Atomic                   Forces (Hartrees/Bohr)
 Number     Number              X              Y              Z
 -------------------------------------------------------------------
      1        6           0.010398913    0.000826553   -0.003015726
      2        6           0.001809063   -0.006056538    0.005682005
      3        6          -0.008253838    0.012987792    0.003067161
      4        1          -0.008531276    0.002231276    0.000028473
      5        1          -0.008974099   -0.002610307    0.003683822
      6        1           0.003330983    0.004793246   -0.001605402
      7        1           0.005136873   -0.004382909   -0.004444798
      8        1          -0.000652038    0.000788469    0.000557536
      9        1           0.005735419   -0.008577583   -0.003953072
 -------------------------------------------------------------------
 Cartesian Forces:  Max     0.012987792 RMS     0.005579418

 GradGradGradGradGradGradGradGradGradGradGradGradGradGradGradGradGradGrad
 Berny optimization.
 Using GEDIIS/GDIIS optimizer.
 FormGI is forming the generalized inverse of G from B-inverse, IUseBI=4.
 Internal  Forces:  Max     0.011597721 RMS     0.005514643
 Search for a local minimum.
 Step number   6 out of a maximum of   40
 All quantities printed in internal units (Hartrees-Bohrs-Radians)
 Mixed Optimization -- RFO/linear search
 Update second derivatives using D2CorX and points    4    6    5
 DE=  2.38D-03 DEPred=-3.04D-03 R=-7.83D-01
 Trust test=-7.83D-01 RLast= 2.90D-01 DXMaxT set to 1.29D-01
 ITU= -1  0 -1  1  1  0
 Use linear search instead of GDIIS.
     Eigenvalues ---   -0.38838   0.00183   0.01643   0.03053   0.05062
     Eigenvalues ---    0.07450   0.09326   0.12793   0.15993   0.15999
     Eigenvalues ---    0.16002   0.16144   0.17728   0.20635   0.33654
     Eigenvalues ---    0.34106   0.34419   0.34521   0.35180   0.35427
     Eigenvalues ---    0.41378
 RFO step:  Lambda=-3.88399237D-01 EMin=-3.88381860D-01
 I=     1 Eig=   -3.88D-01 Dot1= -8.41D-04
 I=     1 Stepn= -3.24D-01 RXN=   3.24D-01 EDone=F
 Mixed    1 eigenvectors in step.  Raw Step.Grad=  8.41D-04.
 RFO eigenvector is Hessian eigenvector with negative curvature.
 Taking step of  3.24D-01 in eigenvector direction(s).  Step.Grad= -5.01D-04.
 Quartic linear search produced a step of -0.74458.
 Maximum step size (   0.129) exceeded in Quadratic search.
    -- Step size not scaled.
 Iteration  1 RMS(Cart)=  0.09072507 RMS(Int)=  0.00733195
 Iteration  2 RMS(Cart)=  0.00892652 RMS(Int)=  0.00107871
 Iteration  3 RMS(Cart)=  0.00003541 RMS(Int)=  0.00107804
 Iteration  4 RMS(Cart)=  0.00000004 RMS(Int)=  0.00107804
 Variable       Old X    -DE/DX   Delta X   Delta X   Delta X     New X
                                 (Linear)    (Quad)   (Total)
    R1        2.51529   0.00675   0.00831  -0.22443  -0.21611   2.29917
    R2        2.02874   0.00785   0.02265  -0.04286  -0.02021   2.00853
    R3        2.04161   0.00487   0.01351  -0.02615  -0.01264   2.02897
    R4        2.86202   0.00063  -0.01076  -0.15014  -0.16091   2.70111
    R5        2.04300   0.00565   0.01682  -0.04731  -0.03049   2.01252
    R6        2.06700  -0.00102   0.00070   0.02668   0.02738   2.09437
    R7        2.06774  -0.00006   0.00112  -0.00584  -0.00472   2.06301
    R8        2.05140   0.00743   0.02137  -0.00553   0.01584   2.06723
    A1        2.12472  -0.00035  -0.00014  -0.01912  -0.02184   2.10288
    A2        2.04745   0.00893   0.07329   0.03277   0.10347   2.15092
    A3        2.10988  -0.00848  -0.07235  -0.00923  -0.08417   2.02571
    A4        2.11022   0.01160   0.07237  -0.01505   0.05725   2.16747
    A5        2.09041  -0.00355  -0.01996  -0.00915  -0.02917   2.06124
    A6        2.08234  -0.00805  -0.05227   0.02446  -0.02787   2.05447
    A7        1.87483   0.00917   0.06937   0.01613   0.08685   1.96168
    A8        1.98166  -0.00496  -0.02999  -0.02766  -0.05769   1.92397
    A9        1.86711   0.01044   0.06763  -0.04518   0.02362   1.89074
   A10        1.90423  -0.00256  -0.01850   0.04509   0.02680   1.93103
   A11        1.95232  -0.00907  -0.07321  -0.01971  -0.09035   1.86198
   A12        1.88476  -0.00321  -0.02086   0.02816   0.00696   1.89173
    D1       -3.11093   0.00010  -0.00858  -0.03306  -0.04145   3.13080
    D2        0.00835   0.00002   0.00185  -0.01903  -0.01717  -0.00882
    D3       -0.02002   0.00218   0.03932   0.06567   0.10497   0.08495
    D4        3.09926   0.00210   0.04975   0.07969   0.12925  -3.05467
    D5       -0.43300   0.00080  -0.02175   0.01642  -0.00430  -0.43731
    D6       -2.53997   0.00075  -0.02651  -0.03416  -0.06039  -2.60036
    D7        1.66580   0.00069  -0.02650  -0.02259  -0.05021   1.61558
    D8        2.73080   0.00082  -0.03226   0.00288  -0.02847   2.70232
    D9        0.62383   0.00078  -0.03702  -0.04770  -0.08456   0.53927
   D10       -1.45359   0.00072  -0.03702  -0.03612  -0.07438  -1.52797
         Item               Value     Threshold  Converged?
 Maximum Force            0.011598     0.000450     NO 
 RMS     Force            0.005515     0.000300     NO 
 Maximum Displacement     0.235508     0.001800     NO 
 RMS     Displacement     0.094791     0.001200     NO 
 Predicted change in Energy=-2.160272D-02
 GradGradGradGradGradGradGradGradGradGradGradGradGradGradGradGradGradGrad

                          Input orientation:                          
 ---------------------------------------------------------------------
 Center     Atomic      Atomic             Coordinates (Angstroms)
 Number     Number       Type             X           Y           Z
 ---------------------------------------------------------------------
      1          6           0       -1.179983    0.141095    0.063482
      2          6           0       -0.010351    0.440290   -0.087282
      3          6           0        1.073049   -0.488643   -0.007220
      4          1           0       -1.938695    0.882802    0.000885
      5          1           0       -1.504018   -0.842470    0.347030
      6          1           0        0.224690    1.458971   -0.290313
      7          1           0        0.827268   -1.371294    0.616347
      8          1           0        1.970105    0.008781    0.366505
      9          1           0        1.280203   -0.863208   -1.013934
 ---------------------------------------------------------------------
                    Distance matrix (angstroms):
                    1          2          3          4          5
     1  C    0.000000
     2  C    1.216670   0.000000
     3  C    2.340453   1.429365   0.000000
     4  H    1.062870   1.980429   3.309310   0.000000
     5  H    1.073684   2.016220   2.625254   1.812546   0.000000
     6  H    1.958335   1.064977   2.143142   2.257654   2.948096
     7  H    2.573331   2.116255   1.108294   3.620813   2.405635
     8  H    3.167393   2.077096   1.091700   4.021978   3.576945
     9  H    2.867396   2.055072   1.093931   3.799962   3.099119
                    6          7          8          9
     6  H    0.000000
     7  H    3.032414   0.000000
     8  H    2.362400   1.809172   0.000000
     9  H    2.651463   1.766668   1.772552   0.000000
 Stoichiometry    C3H6
 Framework group  C1[X(C3H6)]
 Deg. of freedom    21
 Full point group                 C1      NOp   1
 Largest Abelian subgroup         C1      NOp   1
 Largest concise Abelian subgroup C1      NOp   1
                         Standard orientation:                         
 ---------------------------------------------------------------------
 Center     Atomic      Atomic             Coordinates (Angstroms)
 Number     Number       Type             X           Y           Z
 ---------------------------------------------------------------------
      1          6           0        1.177992   -0.216371    0.010869
      2          6           0        0.147517    0.430283   -0.004792
      3          6           0       -1.161299   -0.144248   -0.004543
      4          1           0        2.121652    0.272580   -0.000274
      5          1           0        1.201230   -1.288092   -0.049730
      6          1           0        0.222096    1.492514   -0.021512
      7          1           0       -1.172210   -1.170115   -0.423821
      8          1           0       -1.856640    0.500141   -0.545904
      9          1           0       -1.501392   -0.225006    1.032038
 ---------------------------------------------------------------------
[...]
 IR Inten    --      2.0127                36.7404                 4.1539
  Atom  AN      X      Y      Z        X      Y      Z        X      Y      Z
     1   6    -0.25  -0.11  -0.00     0.00   0.00  -0.19     0.01  -0.07  -0.00
     2   6    -0.13  -0.22  -0.00     0.00   0.00   0.05     0.00   0.02   0.00
     3   6     0.36   0.20   0.00    -0.00  -0.00   0.01    -0.08   0.06  -0.00
     4   1    -0.87   0.51   0.00     0.00  -0.00   0.82    -0.30   0.25   0.00
     5   1     0.42   0.11   0.00    -0.00  -0.00   0.78     0.47   0.07   0.00
     6   1    -0.12  -0.23  -0.00    -0.00   0.00  -0.02     0.42   0.13   0.00
     7   1     0.11   0.13  -0.00    -0.00  -0.00  -0.02     0.47   0.24   0.00
     8   1     0.39   0.50   0.02     0.04   0.03  -0.01    -0.10  -0.36  -0.04
     9   1     0.39   0.50  -0.02    -0.04  -0.03  -0.01    -0.10  -0.36   0.04
                      7                      8                      9
                     A"                     ?F                     ?G
 Frequencies --   1033.0971              1073.5058              1195.7733
 Red. masses --      1.0490                 1.5331                 1.8087
 Frc consts  --      0.6596                 1.0410                 1.5238
 IR Inten    --      9.6305                 0.7067                 0.3570
  Atom  AN      X      Y      Z        X      Y      Z        X      Y      Z
     1   6    -0.00   0.00   0.00    -0.00   0.00  -0.02    -0.06  -0.12   0.00
     2   6    -0.00  -0.00  -0.04    -0.00  -0.00   0.20     0.06   0.26   0.00
     3   6     0.00   0.00  -0.05     0.00   0.00  -0.19     0.04  -0.20  -0.00
     4   1     0.00  -0.00  -0.40     0.00  -0.00  -0.07    -0.46   0.29  -0.00
     5   1    -0.00  -0.00   0.51    -0.00  -0.00  -0.04     0.48   0.06   0.00
     6   1    -0.00  -0.00   0.73    -0.00  -0.00  -0.50     0.41   0.35  -0.00
     7   1    -0.00  -0.00   0.07    -0.00  -0.00   0.38    -0.70  -0.45   0.00
     8   1    -0.16  -0.14   0.05    -0.59  -0.37   0.21    -0.04   0.27   0.12
     9   1     0.16   0.14   0.05     0.59   0.37   0.21    -0.04   0.27  -0.12
                     10                     11                     12
                     ?H                     ?H                     ?H
 Frequencies --   1331.6591              1420.0219              1461.3506
 Red. masses --      1.2419                 1.2108                 1.2131
 Frc consts  --      1.2975                 1.4385                 1.5264
 IR Inten    --      0.3255                 0.7741                 0.6717
  Atom  AN      X      Y      Z        X      Y      Z        X      Y      Z
     1   6    -0.07   0.10   0.00    -0.00  -0.00   0.00    -0.02   0.03   0.00
     2   6     0.02  -0.09  -0.00    -0.04   0.02  -0.00    -0.12  -0.03   0.00
     3   6     0.00  -0.03  -0.00    -0.10  -0.10  -0.00     0.08   0.01   0.00
     4   1    -0.02   0.03  -0.00     0.18  -0.17  -0.00     0.50  -0.49   0.00
     5   1    -0.49  -0.02   0.00     0.26   0.07   0.00     0.55   0.19  -0.00
     6   1     0.97   0.15   0.00     0.05   0.05   0.00     0.28   0.08  -0.00
     7   1    -0.02  -0.04   0.00     0.54   0.14   0.00    -0.04  -0.02  -0.00
     8   1     0.05   0.06  -0.01     0.34   0.46  -0.22    -0.27   0.04   0.25
     9   1     0.05   0.06   0.01     0.34   0.46   0.22    -0.27   0.04  -0.25
                     13                     14                     15
                     A"                     ?I                     ?J
 Frequencies --   1493.7304              1507.6699              1734.2354
 Red. masses --      1.0448                 1.0568                 4.4463
 Frc consts  --      1.3735                 1.4153                 7.8788
 IR Inten    --      5.8154                 9.9250                10.2532
  Atom  AN      X      Y      Z        X      Y      Z        X      Y      Z
     1   6    -0.00   0.00   0.00     0.04  -0.01   0.00    -0.76   0.16  -0.00
     2   6    -0.00  -0.00  -0.02     0.02  -0.00  -0.00     0.88  -0.07   0.00
     3   6     0.00   0.00  -0.06     0.01  -0.05  -0.00    -0.12  -0.03   0.00
     4   1     0.00  -0.00  -0.00    -0.17   0.19   0.00     0.15  -0.91   0.00
     5   1     0.00   0.00   0.01    -0.23  -0.09   0.00     0.72   0.73   0.00
     6   1     0.00   0.00   0.05    -0.07  -0.03   0.00    -0.65  -0.58  -0.00
     7   1    -0.00  -0.00   0.73     0.44   0.12   0.00     0.36   0.14   0.00
     8   1    -0.01   0.50   0.05    -0.40   0.29   0.34    -0.32  -0.08   0.14
     9   1     0.01  -0.50   0.05    -0.40   0.29  -0.34    -0.32  -0.08  -0.14
                     16                     17                     18
                     A'                     ?K                     ?I
 Frequencies --   3028.4131              3078.9785              3115.7971
 Red. masses --      1.0372                 1.0999                 1.0987
 Frc consts  --      5.6046                 6.1433                 6.2843
 IR Inten    --     25.9916                25.6992                 9.1272
  Atom  AN      X      Y      Z        X      Y      Z        X      Y      Z
     1   6    -0.00   0.00   0.00     0.00  -0.00  -0.00    -0.00  -0.00  -0.00
     2   6     0.00  -0.00  -0.00     0.00  -0.00  -0.00    -0.01   0.03  -0.00
     3   6    -0.05  -0.02  -0.00     0.00   0.00  -0.10     0.05  -0.08  -0.00
     4   1     0.01   0.01  -0.00    -0.00  -0.00   0.00     0.04   0.04   0.00
     5   1     0.00  -0.01   0.00    -0.00   0.00  -0.00     0.01  -0.04  -0.00
     6   1    -0.01   0.02   0.00    -0.00   0.00   0.00     0.09  -0.33   0.00
     7   1    -0.16   0.42  -0.00     0.00  -0.00  -0.02    -0.30   0.84  -0.00
     8   1     0.37  -0.09   0.53     0.44  -0.10   0.59    -0.16   0.03  -0.24
     9   1     0.37  -0.09  -0.53    -0.44   0.10   0.59    -0.16   0.03   0.24
                     19                     20                     21
                     ?I                     ?I                     ?E
 Frequencies --   3141.2280              3150.5053              3233.5285
 Red. masses --      1.0755                 1.0769                 1.1155
 Frc consts  --      6.2526                 6.2976                 6.8717
 IR Inten    --     35.9703                 4.0761                21.9582
  Atom  AN      X      Y      Z        X      Y      Z        X      Y      Z
     1   6     0.03  -0.01  -0.00     0.06  -0.03  -0.00    -0.04  -0.10   0.00
     2   6     0.02  -0.07  -0.00    -0.02   0.04   0.00     0.00  -0.01  -0.00
     3   6     0.02  -0.02  -0.00    -0.01   0.01   0.00     0.00  -0.00  -0.00
     4   1    -0.29  -0.30   0.00    -0.34  -0.35   0.00     0.60   0.57   0.00
     5   1    -0.11   0.36  -0.00    -0.21   0.70   0.00    -0.20   0.61   0.00
     6   1    -0.20   0.78   0.00     0.13  -0.50  -0.00    -0.03   0.12  -0.00
     7   1    -0.09   0.26  -0.00     0.04  -0.10   0.00    -0.00   0.02  -0.00
     8   1    -0.06   0.01  -0.08     0.03  -0.00   0.04    -0.00   0.00  -0.01
     9   1    -0.06   0.01   0.08     0.03  -0.00  -0.04    -0.00   0.00   0.01

 -------------------
 - Thermochemistry -
 -------------------
 Temperature  3000.000 Kelvin.  Pressure   0.98700 Atm.
 Atom     1 has atomic number  6 and mass  12.00000
 Atom     2 has atomic number  6 and mass  12.00000
 Atom     3 has atomic number  6 and mass  12.00000
 Atom     4 has atomic number  1 and mass   1.00783
 Atom     5 has atomic number  1 and mass   1.00783
 Atom     6 has atomic number  1 and mass   1.00783
 Atom     7 has atomic number  1 and mass   1.00783
 Atom     8 has atomic number  1 and mass   1.00783
 Atom     9 has atomic number  1 and mass   1.00783
 Molecular mass:    42.04695 amu.
 Principal axes and moments of inertia in atomic units:
                           1         2         3
     Eigenvalues --    38.53247 194.98088 222.38029
           X            0.96030  -0.27895   0.00000
           Y            0.27895   0.96030   0.00000
           Z           -0.00000  -0.00000   1.00000
 This molecule is an asymmetric top.
 Rotational symmetry number  1.
 Rotational temperatures (Kelvin)      2.24782     0.44422     0.38949
 Rotational constants (GHZ):          46.83690     9.25599     8.11556
 Zero-point vibrational energy     209572.6 (Joules/Mol)
                                   50.08905 (Kcal/Mol)
 Warning -- explicit consideration of  21 degrees of freedom as
           vibrations may cause significant error
 Identified internal rotation modes:
   28
 Vibrational temperatures:    299.16   610.62   846.86  1338.34  1349.07
          (Kelvin)           1366.17  1486.40  1544.54  1720.45  1915.96
                             2043.09  2102.56  2149.14  2169.20  2495.18
                             4357.21  4429.96  4482.94  4519.53  4532.87
                             4652.33
 
 Zero-point correction=                           0.079822 (Hartree/Particle)
 Thermal correction to Energy=                    0.241974
 Thermal correction to Enthalpy=                  0.251474
 Thermal correction to Gibbs Free Energy=        -0.411962
 Sum of electronic and zero-point Energies=           -117.836729
 Sum of electronic and thermal Energies=              -117.674577
 Sum of electronic and thermal Enthalpies=            -117.665077
 Sum of electronic and thermal Free Energies=         -118.328513
 
                     E (Thermal)             CV                S
                      KCal/Mol        Cal/Mol-Kelvin    Cal/Mol-Kelvin
 Total                  151.841             44.934            138.771
 Corrected for 
 internal rot.          149.805             43.971            137.860
 Electronic               0.000              0.000              0.000
 Translational            8.942              2.981             48.631
 Rotational               8.942              2.981             28.922
 Vibrational            133.956             38.972             61.217
 Vibration     1          5.967              1.986              6.569
 Vibration     2          5.982              1.980              5.154
 Vibration     3          6.001              1.974              4.507
 Vibration     4          6.060              1.955              3.608
 Vibration     5          6.062              1.954              3.592
 Vibration     6          6.064              1.953              3.567
 Vibration     7          6.083              1.947              3.403
 Vibration     8          6.093              1.944              3.328
 Vibration     9          6.124              1.934              3.119
 Vibration    10          6.163              1.921              2.912
 Vibration    11          6.190              1.912              2.789
 Vibration    12          6.204              1.908              2.734
 Vibration    13          6.214              1.904              2.692
 Vibration    14          6.219              1.903              2.674
 Vibration    15          6.301              1.877              2.410
 Vibration    16          6.975              1.672              1.411
 Vibration    17          7.007              1.662              1.384
 Vibration    18          7.032              1.655              1.364
 Vibration    19          7.049              1.650              1.351
 Vibration    20          7.055              1.649              1.346
 Vibration    21          7.111              1.633              1.303
                       Q            Log10(Q)             Ln(Q)
 Total Bot       0.679276D+19         18.832046         43.362388
 Corrected for 
 Internal rot.   0.604302D+19         18.781254         43.245435
 Total V=0       0.302662D+23         22.480958         51.764318
 Corrected for 
 Internal rot.   0.269256D+23         22.430166         51.647365
 Vib (Bot)       0.417118D+04          3.620259          8.335953
 Vib (Bot)    1  0.100238D+02          1.001032          2.304960
 Vib (Bot)    2  0.490461D+01          0.690604          1.590175
 Vib (Bot)    3  0.353077D+01          0.547870          1.261517
 Vib (Bot)    4  0.222310D+01          0.346959          0.798902
 Vib (Bot)    5  0.220513D+01          0.343434          0.790786
 Vib (Bot)    6  0.217706D+01          0.337870          0.777974
 Vib (Bot)    7  0.199781D+01          0.300553          0.692050
 Vib (Bot)    8  0.192104D+01          0.283537          0.652869
 Vib (Bot)    9  0.172006D+01          0.235544          0.542360
 Vib (Bot)   10  0.153950D+01          0.187379          0.431456
 Vib (Bot)   11  0.144036D+01          0.158472          0.364896
 Vib (Bot)   12  0.139804D+01          0.145521          0.335075
 Vib (Bot)   13  0.136650D+01          0.135608          0.312250
 Vib (Bot)   14  0.135332D+01          0.131402          0.302563
 Vib (Bot)   15  0.116835D+01          0.067573          0.155593
 Vib (Bot)   16  0.631524D+00         -0.199610         -0.459619
 Vib (Bot)   17  0.619379D+00         -0.208043         -0.479038
 Vib (Bot)   18  0.610770D+00         -0.214122         -0.493034
 Vib (Bot)   19  0.604935D+00         -0.218291         -0.502634
 Vib (Bot)   20  0.602829D+00         -0.219806         -0.506122
 Vib (Bot)   21  0.584485D+00         -0.233227         -0.537025
 Vib (V=0)       0.185853D+08          7.269170         16.737883
 Vib (V=0)    1  0.105362D+02          1.022686          2.354821
 Vib (V=0)    2  0.543003D+01          0.734802          1.691944
 Vib (V=0)    3  0.406600D+01          0.609167          1.402660
 Vib (V=0)    4  0.277863D+01          0.443831          1.021959
 Vib (V=0)    5  0.276110D+01          0.441083          1.015631
 Vib (V=0)    6  0.273374D+01          0.436757          1.005669
 Vib (V=0)    7  0.255943D+01          0.408142          0.939783
 Vib (V=0)    8  0.248505D+01          0.395335          0.910292
 Vib (V=0)    9  0.229126D+01          0.360074          0.829101
 Vib (V=0)   10  0.211866D+01          0.326061          0.750782
 Vib (V=0)   11  0.202468D+01          0.306356          0.705411
 Vib (V=0)   12  0.198477D+01          0.297709          0.685501
 Vib (V=0)   13  0.195510D+01          0.291169          0.670440
 Vib (V=0)   14  0.194273D+01          0.288414          0.664097
 Vib (V=0)   15  0.177084D+01          0.248180          0.571456
 Vib (V=0)   16  0.130550D+01          0.115775          0.266582
 Vib (V=0)   17  0.129601D+01          0.112608          0.259290
 Vib (V=0)   18  0.128933D+01          0.110364          0.254122
 Vib (V=0)   19  0.128482D+01          0.108843          0.250621
 Vib (V=0)   20  0.128320D+01          0.108294          0.249357
 Vib (V=0)   21  0.126917D+01          0.103520          0.238363
 Electronic      0.100000D+01          0.000000          0.000000
 Translational   0.348702D+10          9.542455         21.972314
 Rotational      0.467017D+06          5.669333         13.054121
 ***** Axes restored to original set *****
 -------------------------------------------------------------------
 Center     Atomic                   Forces (Hartrees/Bohr)
 Number     Number              X              Y              Z
 -------------------------------------------------------------------
      1        6           0.000069195    0.000004627   -0.000014793
      2        6          -0.000050434   -0.000026077    0.000018996
      3        6          -0.000022191   -0.000028397    0.000014480
      4        1          -0.000009389    0.000005665   -0.000000269
      5        1          -0.000015360    0.000007613    0.000000158
      6        1          -0.000004461    0.000003913   -0.000000570
      7        1          -0.000015643   -0.000008590    0.000006074
      8        1           0.000026695    0.000025494    0.000001429
      9        1           0.000021588    0.000015751   -0.000025504
 -------------------------------------------------------------------
 Cartesian Forces:  Max     0.000069195 RMS     0.000022489
 FormGI is forming the generalized inverse of G from B-inverse, IUseBI=4.

 ----------------------------------------------------------------------

 Electric dipole moment (input orientation):
 (Debye = 10**-18 statcoulomb cm , SI units = C m)
                  (au)            (Debye)         (10**-30 SI)
   Tot        0.144572D+00      0.367466D+00      0.122574D+01
   x          0.142227D+00      0.361505D+00      0.120585D+01
   y         -0.137396D-01     -0.349225D-01     -0.116489D+00
   z         -0.219966D-01     -0.559098D-01     -0.186495D+00

 Dipole polarizability, Alpha (input orientation).
 (esu units = cm**3 , SI units = C**2 m**2 J**-1)
 Alpha(0;0):
               (au)            (10**-24 esu)      (10**-40 SI)
   iso        0.318750D+02      0.472338D+01      0.525547D+01
   aniso      0.223439D+02      0.331102D+01      0.368401D+01
   xx         0.443407D+02      0.657061D+01      0.731079D+01
   yx        -0.862344D+00     -0.127786D+00     -0.142181D+00
   yy         0.297459D+02      0.440789D+01      0.490444D+01
   zx        -0.441549D+01     -0.654308D+00     -0.728016D+00
   zy        -0.357638D+01     -0.529965D+00     -0.589666D+00
   zz         0.215384D+02      0.319166D+01      0.355120D+01

 ----------------------------------------------------------------------

 Dipole orientation:
     6         -0.04795199         -0.11006036         -2.46008706
     6         -0.24770141         -0.85643622         -0.06288054
     6          0.19279362          0.78950028          2.20547604
     1         -0.39144656         -1.39354874         -4.02378059
     1          0.46827304          1.81884592         -2.94728434
     1         -0.77074798         -2.81083164          0.32939797
     1          0.70817835          2.71526675          1.65751750
     1          1.71008235          0.03091227          3.39804697
     1         -1.50057204          0.89016613          3.39804697

 Electric dipole moment (dipole orientation):
 (Debye = 10**-18 statcoulomb cm , SI units = C m)
                  (au)            (Debye)         (10**-30 SI)
   Tot        0.144572D+00      0.367466D+00      0.122574D+01
   x          0.000000D+00      0.000000D+00      0.000000D+00
   y          0.000000D+00      0.000000D+00      0.000000D+00
   z          0.144572D+00      0.367466D+00      0.122574D+01

 Dipole polarizability, Alpha (dipole orientation).
 (esu units = cm**3 , SI units = C**2 m**2 J**-1)
 Alpha(0;0):
               (au)            (10**-24 esu)      (10**-40 SI)
   iso        0.318750D+02      0.472338D+01      0.525547D+01
   aniso      0.223439D+02      0.331102D+01      0.368401D+01
   xx         0.201927D+02      0.299225D+01      0.332933D+01
   yx         0.293429D+01      0.434816D+00      0.483799D+00
   yy         0.303716D+02      0.450060D+01      0.500760D+01
   zx        -0.317484D+00     -0.470463D-01     -0.523461D-01
   zy        -0.118630D+01     -0.175792D+00     -0.195594D+00
   zz         0.450606D+02      0.667730D+01      0.742950D+01

 ----------------------------------------------------------------------

 This type of calculation cannot be archived.


 THE ENLIGHTENED ONE, BECAUSE HE SAW MANKIND DROWNING  
 IN THE GREAT SEA OF BIRTH, DEATH, AND SORROW, LONGED TO SAVE 
 THEM, FOR THIS HE WAS MOVED TO PITY.                         
 BECAUSE HE SAW MEN OF THE WORLD STRAYING IN FALSE PATHS, AND 
 NONE TO GUIDE THEM, FOR THIS HE WAS MOVED TO PITY.           
                     ..................                       
 BECAUSE HE SAW THE MEN OF THE WORLD PLOUGHING THEIR FIELDS,  
 SOWING THE SEED, TRAFFICKING, HUCKSTERING, BUYING, SELLING,  
 AND AT THE END WINNOWING NOTHING BUT BITTERNESS,             
 FOR THIS HE WAS MOVED TO PITY......                   
                   BUDAH'S PITY - UPSAKA SILA SUTRA           
 Job cpu time:       0 days  0 hours  0 minutes  0.5 seconds.
 Elapsed time:       0 days  0 hours  0 minutes  0.4 seconds.
 File lengths (MBytes):  RWF=      6 Int=      0 D2E=      0 Chk=      2 Scr=      1
 Normal termination of Gaussian 16 at Tue May  3 11:59:16 2022.
