 Entering Gaussian System, Link 0=g16
 Initial command:
 /software//g16/l1.exe "/home/tmp/g16/Gau-2316290.inp" -scrdir="/home/tmp/g16/"
 Entering Link 1 = /software//g16/l1.exe PID=   2316291.
  
 Copyright (c) 1988-2019, Gaussian, Inc.  All Rights Reserved.
  
 This is part of the Gaussian(R) 16 program.  It is based on
 the Gaussian(R) 09 system (copyright 2009, Gaussian, Inc.),
 the Gaussian(R) 03 system (copyright 2003, Gaussian, Inc.),
 the Gaussian(R) 98 system (copyright 1998, Gaussian, Inc.),
 the Gaussian(R) 94 system (copyright 1995, Gaussian, Inc.),
 the Gaussian 92(TM) system (copyright 1992, Gaussian, Inc.),
 the Gaussian 90(TM) system (copyright 1990, Gaussian, Inc.),
 the Gaussian 88(TM) system (copyright 1988, Gaussian, Inc.),
 the Gaussian 86(TM) system (copyright 1986, Carnegie Mellon
 University), and the Gaussian 82(TM) system (copyright 1983,
 Carnegie Mellon University). Gaussian is a federally registered
 trademark of Gaussian, Inc.
  
 This software contains proprietary and confidential information,
 including trade secrets, belonging to Gaussian, Inc.
  
 This software is provided under written license and may be
 used, copied, transmitted, or stored only in accord with that
 written license.
  
 The following legend is applicable only to US Government
 contracts under FAR:
  
                    RESTRICTED RIGHTS LEGEND
  
 Use, reproduction and disclosure by the US Government is
 subject to restrictions as set forth in subparagraphs (a)
 and (c) of the Commercial Computer Software - Restricted
 Rights clause in FAR 52.227-19.
  
 Gaussian, Inc.
 340 Quinnipiac St., Bldg. 40, Wallingford CT 06492
  
  
 ---------------------------------------------------------------
 Warning -- This program may not be used in any manner that
 competes with the business of Gaussian, Inc. or will provide
 assistance to any competitor of Gaussian, Inc.  The licensee
 of this program is prohibited from giving any competitor of
 Gaussian, Inc. access to this program.  By using this program,
 the user acknowledges that Gaussian, Inc. is engaged in the
 business of creating and licensing software in the field of
 computational chemistry and represents and warrants to the
 licensee that it is not a competitor of Gaussian, Inc. and that
 it will not use this program in any manner prohibited above.
 ---------------------------------------------------------------
  

 Cite this work as:
 Gaussian 16, Revision C.01,
 M. J. Frisch, G. W. Trucks, H. B. Schlegel, G. E. Scuseria, 
 M. A. Robb, J. R. Cheeseman, G. Scalmani, V. Barone, 
 G. A. Petersson, H. Nakatsuji, X. Li, M. Caricato, A. V. Marenich, 
 J. Bloino, B. G. Janesko, R. Gomperts, B. Mennucci, H. P. Hratchian, 
 J. V. Ortiz, A. F. Izmaylov, J. L. Sonnenberg, D. Williams-Young, 
 F. Ding, F. Lipparini, F. Egidi, J. Goings, B. Peng, A. Petrone, 
 T. Henderson, D. Ranasinghe, V. G. Zakrzewski, J. Gao, N. Rega, 
 G. Zheng, W. Liang, M. Hada, M. Ehara, K. Toyota, R. Fukuda, 
 J. Hasegawa, M. Ishida, T. Nakajima, Y. Honda, O. Kitao, H. Nakai, 
 T. Vreven, K. Throssell, J. A. Montgomery, Jr., J. E. Peralta, 
 F. Ogliaro, M. J. Bearpark, J. J. Heyd, E. N. Brothers, K. N. Kudin, 
 V. N. Staroverov, T. A. Keith, R. Kobayashi, J. Normand, 
 K. Raghavachari, A. P. Rendell, J. C. Burant, S. S. Iyengar, 
 J. Tomasi, M. Cossi, J. M. Millam, M. Klene, C. Adamo, R. Cammi, 
 J. W. Ochterski, R. L. Martin, K. Morokuma, O. Farkas, 
 J. B. Foresman, and D. J. Fox, Gaussian, Inc., Wallingford CT, 2019.
 
 ******************************************
 Gaussian 16:  ES64L-G16RevC.01  3-Jul-2019
                 3-May-2022 
 ******************************************
 %nprocshared=8
 Will use up to    8 processors via shared memory.
 %chk=CCC.chk
 ----------------------------------------------------------------------
 # opt freq=hinderedrotor B3LYP/6-31g(d,p) scf=fermi symm=veryloose pre
 ss=0.987
 ----------------------------------------------------------------------
 1/18=20,19=15,26=3,38=1,113=-987000/1,3;
 2/9=110,12=2,17=2,18=2,40=1/2;
 3/5=1,6=6,7=101,11=2,25=1,30=1,71=1,74=-5/1,2,3;
 4//1;
 5/5=2,22=13,38=5/2;
 6/7=2,8=2,9=2,10=2,28=1/1;
 7//1,2,3,16;
 1/18=20,19=15,26=3/3(2);
 2/9=110/2;
 99//99;
 2/9=110/2;
 3/5=1,6=6,7=101,11=2,25=1,30=1,71=1,74=-5/1,2,3;
 4/5=5,16=3,69=1/1;
 5/5=2,22=13,38=5/2;
 7//1,2,3,16;
 1/18=20,19=15,26=3/3(-5);
 2/9=110/2;
 6/7=2,8=2,9=2,10=2,19=2,28=1/1;
 99/9=1/99;
 -----
 CCC_1
 -----
 Symbolic Z-matrix:
 Charge =  0 Multiplicity = 1
 C                    -1.26535  -0.26825   0. 
 C                     0.        0.57671   0. 
 C                     1.26535  -0.26825   0. 
 H                    -2.17021   0.34464  0. 
 H                    -1.30801  -0.91591   0.87829 
 H                    -1.30801  -0.91591  -0.87829 
 H                    0.         1.2476    0.87156 
 H                    0.         1.2476   -0.87156 
 H                     1.30802  -0.91591   0.87829 
 H                     2.1702    0.34465   0. 
 H                     1.30802  -0.91591  -0.87829 
 

 GradGradGradGradGradGradGradGradGradGradGradGradGradGradGradGradGradGrad
 Berny optimization.
 Initialization pass.
                           ----------------------------
                           !    Initial Parameters    !
                           ! (Angstroms and Degrees)  !
 --------------------------                            --------------------------
 ! Name  Definition              Value          Derivative Info.                !
 --------------------------------------------------------------------------------
 ! R1    R(1,2)                  1.5215         estimate D2E/DX2                !
 ! R2    R(1,4)                  1.0929         estimate D2E/DX2                !
 ! R3    R(1,5)                  1.0921         estimate D2E/DX2                !
 ! R4    R(1,6)                  1.0921         estimate D2E/DX2                !
 ! R5    R(2,3)                  1.5215         estimate D2E/DX2                !
 ! R6    R(2,7)                  1.0999         estimate D2E/DX2                !
 ! R7    R(2,8)                  1.0999         estimate D2E/DX2                !
 ! R8    R(3,9)                  1.0921         estimate D2E/DX2                !
 ! R9    R(3,10)                 1.0929         estimate D2E/DX2                !
 ! R10   R(3,11)                 1.0921         estimate D2E/DX2                !
 ! A1    A(2,1,4)              112.1554         estimate D2E/DX2                !
 ! A2    A(2,1,5)              111.2123         estimate D2E/DX2                !
 ! A3    A(2,1,6)              111.2123         estimate D2E/DX2                !
 ! A4    A(4,1,5)              107.4715         estimate D2E/DX2                !
 ! A5    A(4,1,6)              107.4715         estimate D2E/DX2                !
 ! A6    A(5,1,6)              107.0707         estimate D2E/DX2                !
 ! A7    A(1,2,3)              112.5325         estimate D2E/DX2                !
 ! A8    A(1,2,7)              109.7999         estimate D2E/DX2                !
 ! A9    A(1,2,8)              109.7999         estimate D2E/DX2                !
 ! A10   A(3,2,7)              109.8002         estimate D2E/DX2                !
 ! A11   A(3,2,8)              109.8002         estimate D2E/DX2                !
 ! A12   A(7,2,8)              104.8251         estimate D2E/DX2                !
 ! A13   A(2,3,9)              111.2124         estimate D2E/DX2                !
 ! A14   A(2,3,10)             112.1547         estimate D2E/DX2                !
 ! A15   A(2,3,11)             111.2124         estimate D2E/DX2                !
 ! A16   A(9,3,10)             107.4716         estimate D2E/DX2                !
 ! A17   A(9,3,11)             107.0709         estimate D2E/DX2                !
 ! A18   A(10,3,11)            107.4716         estimate D2E/DX2                !
 ! D1    D(4,1,2,3)            180.0            estimate D2E/DX2                !
 ! D2    D(4,1,2,7)             57.3746         estimate D2E/DX2                !
 ! D3    D(4,1,2,8)            -57.3746         estimate D2E/DX2                !
 ! D4    D(5,1,2,3)             59.6181         estimate D2E/DX2                !
 ! D5    D(5,1,2,7)            -63.0073         estimate D2E/DX2                !
 ! D6    D(5,1,2,8)           -177.7566         estimate D2E/DX2                !
 ! D7    D(6,1,2,3)            -59.6181         estimate D2E/DX2                !
 ! D8    D(6,1,2,7)            177.7566         estimate D2E/DX2                !
 ! D9    D(6,1,2,8)             63.0073         estimate D2E/DX2                !
 ! D10   D(1,2,3,9)            -59.6182         estimate D2E/DX2                !
 ! D11   D(1,2,3,10)           180.0            estimate D2E/DX2                !
 ! D12   D(1,2,3,11)            59.6182         estimate D2E/DX2                !
 ! D13   D(7,2,3,9)             63.007          estimate D2E/DX2                !
 ! D14   D(7,2,3,10)           -57.3748         estimate D2E/DX2                !
 ! D15   D(7,2,3,11)          -177.7566         estimate D2E/DX2                !
 ! D16   D(8,2,3,9)            177.7566         estimate D2E/DX2                !
 ! D17   D(8,2,3,10)            57.3748         estimate D2E/DX2                !
 ! D18   D(8,2,3,11)           -63.007          estimate D2E/DX2                !
 --------------------------------------------------------------------------------
 Trust Radius=3.00D-01 FncErr=1.00D-07 GrdErr=1.00D-06 EigMax=2.50D+02 EigMin=1.00D-04
 Number of steps in this run=     56 maximum allowed number of steps=    100.
 GradGradGradGradGradGradGradGradGradGradGradGradGradGradGradGradGradGrad

                          Input orientation:                          
 ---------------------------------------------------------------------
 Center     Atomic      Atomic             Coordinates (Angstroms)
 Number     Number       Type             X           Y           Z
 ---------------------------------------------------------------------
      1          6           0       -1.265350   -0.268250    0.000000
      2          6           0        0.000001    0.576710    0.000000
      3          6           0        1.265350   -0.268251    0.000000
      4          1           0       -2.170211    0.344637   -0.000000
      5          1           0       -1.308013   -0.915910    0.878292
      6          1           0       -1.308013   -0.915910   -0.878292
      7          1           0       -0.000002    1.247596    0.871558
      8          1           0       -0.000002    1.247596   -0.871558
      9          1           0        1.308016   -0.915910    0.878293
     10          1           0        2.170205    0.344646    0.000000
     11          1           0        1.308016   -0.915910   -0.878293
 ---------------------------------------------------------------------
                    Distance matrix (angstroms):
                    1          2          3          4          5
     1  C    0.000000
     2  C    1.521535   0.000000
     3  C    2.530700   1.521535   0.000000
     4  H    1.092888   2.182585   3.489801   0.000000
     5  H    1.092099   2.170303   2.795185   1.761750   0.000000
     6  H    1.092099   2.170303   2.795185   1.761750   1.756585
     7  H    2.158358   1.099864   2.158361   2.506941   2.528181
     8  H    2.158358   1.099864   2.158361   2.506941   3.074675
     9  H    2.795187   2.170303   1.092099   3.802425   2.616029
    10  H    3.489796   2.182576   1.092888   4.340416   3.802420
    11  H    2.795187   2.170303   1.092099   3.802425   3.151063
                    6          7          8          9         10
     6  H    0.000000
     7  H    3.074675   0.000000
     8  H    2.528181   1.743116   0.000000
     9  H    3.151063   2.528184   3.074678   0.000000
    10  H    3.802420   2.506936   2.506936   1.761752   0.000000
    11  H    2.616029   3.074678   2.528184   1.756586   1.761752
                   11
    11  H    0.000000
 Stoichiometry    C3H8
 Framework group  C2V[C2(C),SGV(C2H2),SGV'(H2),X(H4)]
 Deg. of freedom     9
 Full point group                 C2V     NOp   4
 Largest Abelian subgroup         C2V     NOp   4
 Largest concise Abelian subgroup C2V     NOp   4
                         Standard orientation:                         
 ---------------------------------------------------------------------
 Center     Atomic      Atomic             Coordinates (Angstroms)
 Number     Number       Type             X           Y           Z
 ---------------------------------------------------------------------
      1          6           0        0.000000   -1.265350   -0.259100
      2          6           0       -0.000000   -0.000000    0.585861
      3          6           0        0.000000    1.265350   -0.259100
      4          1           0        0.000000   -2.170211    0.353788
      5          1           0        0.878292   -1.308013   -0.906760
      6          1           0       -0.878292   -1.308013   -0.906760
      7          1           0        0.871558   -0.000000    1.256747
      8          1           0       -0.871558    0.000000    1.256747
      9          1           0        0.878292    1.308013   -0.906760
     10          1           0        0.000000    2.170211    0.353788
     11          1           0       -0.878292    1.308013   -0.906760
 ---------------------------------------------------------------------
 Rotational constants (GHZ):          29.5240039           8.4997682           7.5100337
 Standard basis: 6-31G(d,p) (6D, 7F)
 There are    32 symmetry adapted cartesian basis functions of A1  symmetry.
 There are    12 symmetry adapted cartesian basis functions of A2  symmetry.
 There are    17 symmetry adapted cartesian basis functions of B1  symmetry.
 There are    24 symmetry adapted cartesian basis functions of B2  symmetry.
 There are    32 symmetry adapted basis functions of A1  symmetry.
 There are    12 symmetry adapted basis functions of A2  symmetry.
 There are    17 symmetry adapted basis functions of B1  symmetry.
 There are    24 symmetry adapted basis functions of B2  symmetry.
    85 basis functions,   140 primitive gaussians,    85 cartesian basis functions
    13 alpha electrons       13 beta electrons
       nuclear repulsion energy        82.6872569296 Hartrees.
 NAtoms=   11 NActive=   11 NUniq=    5 SFac= 4.00D+00 NAtFMM=   60 NAOKFM=F Big=F
 Integral buffers will be    131072 words long.
 Raffenetti 2 integral format.
 Two-electron integral symmetry is turned on.
 One-electron integrals computed using PRISM.
 NBasis=    85 RedAO= T EigKep=  5.95D-03  NBF=    32    12    17    24
 NBsUse=    85 1.00D-06 EigRej= -1.00D+00 NBFU=    32    12    17    24
 ExpMin= 1.61D-01 ExpMax= 3.05D+03 ExpMxC= 4.57D+02 IAcc=3 IRadAn=         5 AccDes= 0.00D+00
 Harris functional with IExCor=  402 and IRadAn=       5 diagonalized for initial guess.
 HarFok:  IExCor=  402 AccDes= 0.00D+00 IRadAn=         5 IDoV= 1 UseB2=F ITyADJ=14
 ICtDFT=  3500011 ScaDFX=  1.000000  1.000000  1.000000  1.000000
 FoFCou: FMM=F IPFlag=           0 FMFlag=      100000 FMFlg1=           0
         NFxFlg=           0 DoJE=T BraDBF=F KetDBF=T FulRan=T
         wScrn=  0.000000 ICntrl=       500 IOpCl=  0 I1Cent=   200000004 NGrid=           0
         NMat0=    1 NMatS0=      1 NMatT0=    0 NMatD0=    1 NMtDS0=    0 NMtDT0=    0
 Petite list used in FoFCou.
 Initial guess orbital symmetries:
       Occupied  (B2) (A1) (A1) (A1) (B2) (A1) (B1) (A1) (B2) (A2)
                 (B2) (A1) (B1)
       Virtual   (A1) (B1) (A1) (B2) (A1) (B2) (A2) (A1) (B1) (B2)
                 (A1) (B2) (B1) (A1) (A2) (A1) (B2) (B1) (B2) (A1)
                 (B1) (B2) (A1) (A2) (B1) (A1) (B2) (A1) (A2) (A1)
                 (B2) (B2) (A1) (B1) (A2) (B2) (A1) (A1) (B1) (A2)
                 (B1) (A2) (B1) (B2) (A1) (A1) (B1) (A2) (B2) (B1)
                 (B2) (A1) (A2) (B2) (A1) (B2) (A1) (B1) (A2) (A1)
                 (B2) (A1) (B2) (A1) (B1) (B2) (A2) (A1) (B1) (A1)
                 (B2) (A1)
 The electronic state of the initial guess is 1-A1.
 Keep R1 ints in memory in symmetry-blocked form, NReq=13972750.
 Requested convergence on RMS density matrix=1.00D-08 within 128 cycles.
 Requested convergence on MAX density matrix=1.00D-06.
 Requested convergence on             energy=1.00D-06.
 Level shift goal  0.100 maximum shift  0.100.
 No special actions if energy rises.
 Dynamic level shift is on during FON iterations.
 Integral accuracy reduced to 1.0D-05 until final iterations.
 Initial convergence to 1.0D-05 achieved.  Increase integral accuracy.
 SCF Done:  E(RB3LYP) =  -119.155149653     A.U. after   11 cycles
            NFock= 11  Conv=0.34D-08     -V/T= 2.0102

 **********************************************************************

            Population analysis using the SCF Density.

 **********************************************************************

 Orbital symmetries:
       Occupied  (A1) (B2) (A1) (A1) (B2) (A1) (B1) (A1) (B2) (A2)
                 (B2) (A1) (B1)
       Virtual   (A1) (B1) (A1) (B2) (A1) (B1) (A2) (B2) (A1) (B2)
                 (B2) (A1) (B1) (A1) (A2) (A1) (B2) (B1) (B2) (B1)
                 (B2) (A1) (A2) (A1) (B1) (A1) (B2) (A1) (A2) (A1)
                 (B2) (B2) (A1) (B1) (A2) (B2) (A1) (A1) (A2) (B1)
                 (B1) (A2) (B1) (A1) (B2) (B1) (A1) (A2) (B2) (B1)
                 (B2) (A1) (A2) (B2) (A1) (B2) (A1) (B1) (A1) (A2)
                 (B2) (A1) (B2) (A1) (B1) (B2) (A2) (A1) (B1) (A1)
                 (B2) (A1)
 The electronic state is 1-A1.
 Alpha  occ. eigenvalues --  -10.17765 -10.16852 -10.16851  -0.77728  -0.67703
 Alpha  occ. eigenvalues --   -0.58090  -0.45137  -0.43323  -0.39392  -0.37570
 Alpha  occ. eigenvalues --   -0.33437  -0.33389  -0.32152
 Alpha virt. eigenvalues --    0.09689   0.14749   0.14972   0.15160   0.17096
 Alpha virt. eigenvalues --    0.19408   0.19599   0.19863   0.23105   0.26981
 Alpha virt. eigenvalues --    0.51024   0.51171   0.54342   0.54754   0.57190
 Alpha virt. eigenvalues --    0.67095   0.70159   0.71076   0.77058   0.85491
 Alpha virt. eigenvalues --    0.86693   0.86804   0.89734   0.90389   0.92915
 Alpha virt. eigenvalues --    0.94466   0.96273   1.03304   1.30670   1.31275
 Alpha virt. eigenvalues --    1.38536   1.53700   1.55024   1.66549   1.69945
 Alpha virt. eigenvalues --    1.84237   1.85551   1.92167   2.05516   2.05748
 Alpha virt. eigenvalues --    2.07447   2.09291   2.11295   2.11812   2.11887
 Alpha virt. eigenvalues --    2.25283   2.25389   2.29575   2.32079   2.42756
 Alpha virt. eigenvalues --    2.45094   2.50987   2.65314   2.69918   2.73546
 Alpha virt. eigenvalues --    2.75322   2.81458   2.87505   2.91396   2.91444
 Alpha virt. eigenvalues --    2.92367   3.16510   3.23187   3.31448   3.34785
 Alpha virt. eigenvalues --    3.43204   3.49720   3.51423   3.57409   4.30405
 Alpha virt. eigenvalues --    4.49482   4.64654
          Condensed to atoms (all electrons):
               1          2          3          4          5          6
     1  C    4.904126   0.384687  -0.052451   0.380921   0.387598   0.387598
     2  C    0.384687   4.825138   0.384687  -0.028006  -0.036628  -0.036628
     3  C   -0.052451   0.384687   4.904126   0.004781  -0.004665  -0.004665
     4  H    0.380921  -0.028006   0.004781   0.614568  -0.032338  -0.032338
     5  H    0.387598  -0.036628  -0.004665  -0.032338   0.614471  -0.034795
     6  H    0.387598  -0.036628  -0.004665  -0.032338  -0.034795   0.614471
     7  H   -0.039084   0.389424  -0.039084  -0.003168  -0.005316   0.005692
     8  H   -0.039084   0.389424  -0.039084  -0.003168   0.005692  -0.005316
     9  H   -0.004665  -0.036628   0.387598  -0.000007   0.005097  -0.000475
    10  H    0.004781  -0.028006   0.380921  -0.000205  -0.000007  -0.000007
    11  H   -0.004665  -0.036628   0.387598  -0.000007  -0.000475   0.005097
               7          8          9         10         11
     1  C   -0.039084  -0.039084  -0.004665   0.004781  -0.004665
     2  C    0.389424   0.389424  -0.036628  -0.028006  -0.036628
     3  C   -0.039084  -0.039084   0.387598   0.380921   0.387598
     4  H   -0.003168  -0.003168  -0.000007  -0.000205  -0.000007
     5  H   -0.005316   0.005692   0.005097  -0.000007  -0.000475
     6  H    0.005692  -0.005316  -0.000475  -0.000007   0.005097
     7  H    0.642586  -0.041741  -0.005316  -0.003168   0.005692
     8  H   -0.041741   0.642586   0.005692  -0.003168  -0.005316
     9  H   -0.005316   0.005692   0.614471  -0.032338  -0.034795
    10  H   -0.003168  -0.003168  -0.032338   0.614568  -0.032338
    11  H    0.005692  -0.005316  -0.034795  -0.032338   0.614471
 Mulliken charges:
               1
     1  C   -0.309764
     2  C   -0.170837
     3  C   -0.309764
     4  H    0.098968
     5  H    0.101366
     6  H    0.101366
     7  H    0.093482
     8  H    0.093482
     9  H    0.101366
    10  H    0.098968
    11  H    0.101366
 Sum of Mulliken charges =  -0.00000
 Mulliken charges with hydrogens summed into heavy atoms:
               1
     1  C   -0.008064
     2  C    0.016128
     3  C   -0.008064
 Electronic spatial extent (au):  <R**2>=            225.3177
 Charge=              0.0000 electrons
 Dipole moment (field-independent basis, Debye):
    X=              0.0000    Y=              0.0000    Z=              0.0380  Tot=              0.0380
 Quadrupole moment (field-independent basis, Debye-Ang):
   XX=            -21.2898   YY=            -21.7885   ZZ=            -21.5298
   XY=             -0.0000   XZ=             -0.0000   YZ=              0.0000
 Traceless Quadrupole moment (field-independent basis, Debye-Ang):
   XX=              0.2462   YY=             -0.2525   ZZ=              0.0063
   XY=             -0.0000   XZ=             -0.0000   YZ=              0.0000
 Octapole moment (field-independent basis, Debye-Ang**2):
  XXX=             -0.0000  YYY=              0.0000  ZZZ=              0.1889  XYY=              0.0000
  XXY=             -0.0000  XXZ=             -0.4702  XZZ=             -0.0000  YZZ=             -0.0000
  YYZ=              1.0685  XYZ=              0.0000
 Hexadecapole moment (field-independent basis, Debye-Ang**3):
 XXXX=            -42.6424 YYYY=           -197.3882 ZZZZ=            -69.3009 XXXY=             -0.0000
 XXXZ=             -0.0000 YYYX=             -0.0000 YYYZ=              0.0000 ZZZX=              0.0000
 ZZZY=              0.0000 XXYY=            -40.9076 XXZZ=            -16.9037 YYZZ=            -44.2748
 XXYZ=              0.0000 YYXZ=             -0.0000 ZZXY=             -0.0000
 N-N= 8.268725692964D+01 E-N=-4.400294460388D+02  KE= 1.179575611318D+02
 Symmetry A1   KE= 7.298371848573D+01
 Symmetry A2   KE= 2.023359506016D+00
 Symmetry B1   KE= 3.840304364230D+00
 Symmetry B2   KE= 3.911017877584D+01
 Calling FoFJK, ICntrl=      2127 FMM=F ISym2X=1 I1Cent= 0 IOpClX= 0 NMat=1 NMatS=1 NMatT=0.
 ***** Axes restored to original set *****
 -------------------------------------------------------------------
 Center     Atomic                   Forces (Hartrees/Bohr)
 Number     Number              X              Y              Z
 -------------------------------------------------------------------
      1        6          -0.003925179   -0.000634858    0.000000000
      2        6          -0.000000001    0.007968778    0.000000000
      3        6           0.003925179   -0.000634857    0.000000000
      4        1          -0.000933115    0.001300617   -0.000000000
      5        1           0.000057970   -0.001437999    0.002468222
      6        1           0.000057970   -0.001437999   -0.002468222
      7        1           0.000000000   -0.001774150    0.000165780
      8        1           0.000000000   -0.001774150   -0.000165780
      9        1          -0.000057969   -0.001437999    0.002468222
     10        1           0.000933114    0.001300617   -0.000000000
     11        1          -0.000057969   -0.001437999   -0.002468222
 -------------------------------------------------------------------
 Cartesian Forces:  Max     0.007968778 RMS     0.002054188

 GradGradGradGradGradGradGradGradGradGradGradGradGradGradGradGradGradGrad
 Berny optimization.
 FormGI is forming the generalized inverse of G from B-inverse, IUseBI=4.
 Internal  Forces:  Max     0.005171293 RMS     0.001513095
 Search for a local minimum.
 Step number   1 out of a maximum of   56
 All quantities printed in internal units (Hartrees-Bohrs-Radians)
 Mixed Optimization -- RFO/linear search
 Second derivative matrix not updated -- first step.
 ITU=  0
     Eigenvalues ---    0.00481   0.00481   0.03564   0.04871   0.05440
     Eigenvalues ---    0.05440   0.05568   0.05568   0.08444   0.12271
     Eigenvalues ---    0.16000   0.16000   0.16000   0.16000   0.16000
     Eigenvalues ---    0.16000   0.21836   0.30219   0.30219   0.33697
     Eigenvalues ---    0.33697   0.34481   0.34481   0.34571   0.34571
     Eigenvalues ---    0.34571   0.34571
 RFO step:  Lambda=-3.73952630D-04 EMin= 4.81084085D-03
 Linear search not attempted -- first point.
 Iteration  1 RMS(Cart)=  0.01117462 RMS(Int)=  0.00002868
 Iteration  2 RMS(Cart)=  0.00004352 RMS(Int)=  0.00000486
 Iteration  3 RMS(Cart)=  0.00000000 RMS(Int)=  0.00000486
 ClnCor:  largest displacement from symmetrization is 6.54D-11 for atom    10.
 Variable       Old X    -DE/DX   Delta X   Delta X   Delta X     New X
                                 (Linear)    (Quad)   (Total)
    R1        2.87528   0.00517   0.00000   0.01709   0.01709   2.89238
    R2        2.06526   0.00150   0.00000   0.00435   0.00435   2.06961
    R3        2.06377   0.00284   0.00000   0.00819   0.00819   2.07196
    R4        2.06377   0.00284   0.00000   0.00819   0.00819   2.07196
    R5        2.87528   0.00517   0.00000   0.01709   0.01709   2.89238
    R6        2.07844  -0.00095   0.00000  -0.00282  -0.00282   2.07562
    R7        2.07844  -0.00095   0.00000  -0.00282  -0.00282   2.07562
    R8        2.06377   0.00284   0.00000   0.00819   0.00819   2.07196
    R9        2.06526   0.00150   0.00000   0.00435   0.00435   2.06961
   R10        2.06377   0.00284   0.00000   0.00819   0.00819   2.07196
    A1        1.95748  -0.00072   0.00000  -0.00539  -0.00540   1.95208
    A2        1.94102  -0.00019   0.00000  -0.00073  -0.00073   1.94029
    A3        1.94102  -0.00019   0.00000  -0.00073  -0.00073   1.94029
    A4        1.87573   0.00040   0.00000   0.00161   0.00161   1.87734
    A5        1.87573   0.00040   0.00000   0.00161   0.00161   1.87734
    A6        1.86874   0.00039   0.00000   0.00418   0.00418   1.87292
    A7        1.96406   0.00241   0.00000   0.00862   0.00863   1.97269
    A8        1.91637  -0.00093   0.00000  -0.00548  -0.00547   1.91091
    A9        1.91637  -0.00093   0.00000  -0.00548  -0.00547   1.91091
   A10        1.91637  -0.00093   0.00000  -0.00548  -0.00547   1.91091
   A11        1.91637  -0.00093   0.00000  -0.00548  -0.00547   1.91091
   A12        1.82954   0.00119   0.00000   0.01349   0.01349   1.84303
   A13        1.94102  -0.00019   0.00000  -0.00073  -0.00073   1.94029
   A14        1.95748  -0.00072   0.00000  -0.00539  -0.00540   1.95208
   A15        1.94102  -0.00019   0.00000  -0.00073  -0.00073   1.94029
   A16        1.87573   0.00040   0.00000   0.00161   0.00161   1.87734
   A17        1.86874   0.00039   0.00000   0.00418   0.00418   1.87292
   A18        1.87573   0.00040   0.00000   0.00161   0.00161   1.87734
    D1        3.14159   0.00000   0.00000  -0.00000   0.00000   3.14159
    D2        1.00138   0.00019   0.00000   0.00503   0.00503   1.00641
    D3       -1.00138  -0.00019   0.00000  -0.00503  -0.00503  -1.00641
    D4        1.04053   0.00012   0.00000   0.00215   0.00215   1.04268
    D5       -1.09968   0.00031   0.00000   0.00719   0.00719  -1.09250
    D6       -3.10244  -0.00007   0.00000  -0.00288  -0.00288  -3.10532
    D7       -1.04053  -0.00012   0.00000  -0.00215  -0.00215  -1.04268
    D8        3.10244   0.00007   0.00000   0.00288   0.00288   3.10532
    D9        1.09968  -0.00031   0.00000  -0.00719  -0.00719   1.09250
   D10       -1.04053  -0.00012   0.00000  -0.00215  -0.00215  -1.04268
   D11        3.14159  -0.00000   0.00000  -0.00000   0.00000   3.14159
   D12        1.04053   0.00012   0.00000   0.00215   0.00215   1.04268
   D13        1.09968  -0.00031   0.00000  -0.00719  -0.00719   1.09250
   D14       -1.00138  -0.00019   0.00000  -0.00503  -0.00503  -1.00641
   D15       -3.10244  -0.00007   0.00000  -0.00288  -0.00288  -3.10532
   D16        3.10244   0.00007   0.00000   0.00288   0.00288   3.10532
   D17        1.00138   0.00019   0.00000   0.00503   0.00503   1.00641
   D18       -1.09968   0.00031   0.00000   0.00719   0.00719  -1.09250
         Item               Value     Threshold  Converged?
 Maximum Force            0.005171     0.000450     NO 
 RMS     Force            0.001513     0.000300     NO 
 Maximum Displacement     0.027398     0.001800     NO 
 RMS     Displacement     0.011200     0.001200     NO 
 Predicted change in Energy=-1.873056D-04
 GradGradGradGradGradGradGradGradGradGradGradGradGradGradGradGradGradGrad

                          Input orientation:                          
 ---------------------------------------------------------------------
 Center     Atomic      Atomic             Coordinates (Angstroms)
 Number     Number       Type             X           Y           Z
 ---------------------------------------------------------------------
      1          6           0       -1.276528   -0.268532    0.000000
      2          6           0       -0.000000    0.575951    0.000000
      3          6           0        1.276527   -0.268531    0.000000
      4          1           0       -2.177286    0.354427    0.000000
      5          1           0       -1.322512   -0.916697    0.883140
      6          1           0       -1.322512   -0.916697   -0.883140
      7          1           0       -0.000000    1.240042    0.874874
      8          1           0       -0.000000    1.240042   -0.874874
      9          1           0        1.322512   -0.916697    0.883140
     10          1           0        2.177286    0.354428    0.000000
     11          1           0        1.322512   -0.916697   -0.883140
 ---------------------------------------------------------------------
                    Distance matrix (angstroms):
                    1          2          3          4          5
     1  C    0.000000
     2  C    1.530579   0.000000
     3  C    2.553055   1.530579   0.000000
     4  H    1.095191   2.188526   3.509545   0.000000
     5  H    1.096435   2.181048   2.820472   1.768144   0.000000
     6  H    1.096435   2.181048   2.820472   1.768144   1.766280
     7  H    2.161185   1.098373   2.161185   2.508046   2.529947
     8  H    2.161185   1.098373   2.161185   2.508046   3.080775
     9  H    2.820472   2.181048   1.096435   3.826784   2.645024
    10  H    3.509545   2.188526   1.095191   4.354572   3.826784
    11  H    2.820472   2.181048   1.096435   3.826784   3.180549
                    6          7          8          9         10
     6  H    0.000000
     7  H    3.080775   0.000000
     8  H    2.529947   1.749749   0.000000
     9  H    3.180549   2.529947   3.080775   0.000000
    10  H    3.826784   2.508046   2.508046   1.768144   0.000000
    11  H    2.645024   3.080775   2.529947   1.766280   1.768144
                   11
    11  H    0.000000
 Stoichiometry    C3H8
 Framework group  C2V[C2(C),SGV(C2H2),SGV'(H2),X(H4)]
 Deg. of freedom     9
 Full point group                 C2V     NOp   4
 Largest Abelian subgroup         C2V     NOp   4
 Largest concise Abelian subgroup C2V     NOp   4
                         Standard orientation:                         
 ---------------------------------------------------------------------
 Center     Atomic      Atomic             Coordinates (Angstroms)
 Number     Number       Type             X           Y           Z
 ---------------------------------------------------------------------
      1          6           0        0.000000   -1.276527   -0.259127
      2          6           0       -0.000000   -0.000000    0.585356
      3          6           0        0.000000    1.276527   -0.259127
      4          1           0        0.000000   -2.177286    0.363832
      5          1           0        0.883140   -1.322512   -0.907293
      6          1           0       -0.883140   -1.322512   -0.907293
      7          1           0        0.874874   -0.000000    1.249447
      8          1           0       -0.874874    0.000000    1.249447
      9          1           0        0.883140    1.322512   -0.907293
     10          1           0        0.000000    2.177286    0.363832
     11          1           0       -0.883140    1.322512   -0.907293
 ---------------------------------------------------------------------
 Rotational constants (GHZ):          29.4879258           8.3669646           7.4139097
 Standard basis: 6-31G(d,p) (6D, 7F)
 There are    32 symmetry adapted cartesian basis functions of A1  symmetry.
 There are    12 symmetry adapted cartesian basis functions of A2  symmetry.
 There are    17 symmetry adapted cartesian basis functions of B1  symmetry.
 There are    24 symmetry adapted cartesian basis functions of B2  symmetry.
 There are    32 symmetry adapted basis functions of A1  symmetry.
 There are    12 symmetry adapted basis functions of A2  symmetry.
 There are    17 symmetry adapted basis functions of B1  symmetry.
 There are    24 symmetry adapted basis functions of B2  symmetry.
    85 basis functions,   140 primitive gaussians,    85 cartesian basis functions
    13 alpha electrons       13 beta electrons
       nuclear repulsion energy        82.3050005178 Hartrees.
 NAtoms=   11 NActive=   11 NUniq=    5 SFac= 4.00D+00 NAtFMM=   60 NAOKFM=F Big=F
 Integral buffers will be    131072 words long.
 Raffenetti 2 integral format.
 Two-electron integral symmetry is turned on.
 One-electron integrals computed using PRISM.
 NBasis=    85 RedAO= T EigKep=  6.07D-03  NBF=    32    12    17    24
 NBsUse=    85 1.00D-06 EigRej= -1.00D+00 NBFU=    32    12    17    24
 Initial guess from the checkpoint file:  "CCC.chk"
 B after Tr=    -0.000000    0.000000    0.000000
         Rot=    1.000000   -0.000000    0.000000    0.000000 Ang=   0.00 deg.
 Initial guess orbital symmetries:
       Occupied  (A1) (B2) (A1) (A1) (B2) (A1) (B1) (A1) (B2) (A2)
                 (B2) (A1) (B1)
       Virtual   (A1) (B1) (A1) (B2) (A1) (B1) (A2) (B2) (A1) (B2)
                 (B2) (A1) (B1) (A1) (A2) (A1) (B2) (B1) (B2) (B1)
                 (B2) (A1) (A2) (A1) (B1) (A1) (B2) (A1) (A2) (A1)
                 (B2) (B2) (A1) (B1) (A2) (B2) (A1) (A1) (A2) (B1)
                 (B1) (A2) (B1) (A1) (B2) (B1) (A1) (A2) (B2) (B1)
                 (B2) (A1) (A2) (B2) (A1) (B2) (A1) (B1) (A1) (A2)
                 (B2) (A1) (B2) (A1) (B1) (B2) (A2) (A1) (B1) (A1)
                 (B2) (A1)
 ExpMin= 1.61D-01 ExpMax= 3.05D+03 ExpMxC= 4.57D+02 IAcc=3 IRadAn=         5 AccDes= 0.00D+00
 Harris functional with IExCor=  402 and IRadAn=       5 diagonalized for initial guess.
 HarFok:  IExCor=  402 AccDes= 0.00D+00 IRadAn=         5 IDoV= 1 UseB2=F ITyADJ=14
 ICtDFT=  3500011 ScaDFX=  1.000000  1.000000  1.000000  1.000000
 FoFCou: FMM=F IPFlag=           0 FMFlag=      100000 FMFlg1=           0
         NFxFlg=           0 DoJE=T BraDBF=F KetDBF=T FulRan=T
         wScrn=  0.000000 ICntrl=       500 IOpCl=  0 I1Cent=   200000004 NGrid=           0
         NMat0=    1 NMatS0=      1 NMatT0=    0 NMatD0=    1 NMtDS0=    0 NMtDT0=    0
 Petite list used in FoFCou.
 Keep R1 ints in memory in symmetry-blocked form, NReq=13972750.
 Requested convergence on RMS density matrix=1.00D-08 within 128 cycles.
 Requested convergence on MAX density matrix=1.00D-06.
 Requested convergence on             energy=1.00D-06.
 Level shift goal  0.100 maximum shift  0.100.
 No special actions if energy rises.
 Dynamic level shift is on during FON iterations.
 Integral accuracy reduced to 1.0D-05 until final iterations.
 Initial convergence to 1.0D-05 achieved.  Increase integral accuracy.
 SCF Done:  E(RB3LYP) =  -119.155350245     A.U. after    9 cycles
            NFock=  9  Conv=0.37D-08     -V/T= 2.0106
 Calling FoFJK, ICntrl=      2127 FMM=F ISym2X=1 I1Cent= 0 IOpClX= 0 NMat=1 NMatS=1 NMatT=0.
 ***** Axes restored to original set *****
 -------------------------------------------------------------------
 Center     Atomic                   Forces (Hartrees/Bohr)
 Number     Number              X              Y              Z
 -------------------------------------------------------------------
      1        6          -0.000680831   -0.000890435    0.000000000
      2        6          -0.000000000    0.001896000    0.000000000
      3        6           0.000680831   -0.000890435   -0.000000000
      4        1           0.000349759    0.000287401   -0.000000000
      5        1           0.000130312    0.000136807   -0.000063201
      6        1           0.000130312    0.000136807    0.000063201
      7        1           0.000000000   -0.000618579    0.000062860
      8        1           0.000000000   -0.000618579   -0.000062860
      9        1          -0.000130312    0.000136807   -0.000063201
     10        1          -0.000349759    0.000287401   -0.000000000
     11        1          -0.000130312    0.000136807    0.000063201
 -------------------------------------------------------------------
 Cartesian Forces:  Max     0.001896000 RMS     0.000475122

 GradGradGradGradGradGradGradGradGradGradGradGradGradGradGradGradGradGrad
 Berny optimization.
 Using GEDIIS/GDIIS optimizer.
 FormGI is forming the generalized inverse of G from B-inverse, IUseBI=4.
 Internal  Forces:  Max     0.000574917 RMS     0.000201258
 Search for a local minimum.
 Step number   2 out of a maximum of   56
 All quantities printed in internal units (Hartrees-Bohrs-Radians)
 Mixed Optimization -- En-DIIS/RFO-DIIS
 Update second derivatives using D2CorX and points    1    2
 DE= -2.01D-04 DEPred=-1.87D-04 R= 1.07D+00
 TightC=F SS=  1.41D+00  RLast= 4.18D-02 DXNew= 5.0454D-01 1.2542D-01
 Trust test= 1.07D+00 RLast= 4.18D-02 DXMaxT set to 3.00D-01
 ITU=  1  0
 Use linear search instead of GDIIS.
     Eigenvalues ---    0.00481   0.00481   0.03553   0.04556   0.05483
     Eigenvalues ---    0.05483   0.05538   0.05573   0.08492   0.12306
     Eigenvalues ---    0.15064   0.16000   0.16000   0.16000   0.16000
     Eigenvalues ---    0.16009   0.21898   0.29969   0.30219   0.33476
     Eigenvalues ---    0.33697   0.34481   0.34492   0.34571   0.34571
     Eigenvalues ---    0.34571   0.37053
 RFO step:  Lambda=-1.49021761D-05 EMin= 4.81084085D-03
 Quartic linear search produced a step of  0.08692.
 Iteration  1 RMS(Cart)=  0.00209148 RMS(Int)=  0.00000482
 Iteration  2 RMS(Cart)=  0.00000530 RMS(Int)=  0.00000143
 Iteration  3 RMS(Cart)=  0.00000000 RMS(Int)=  0.00000143
 ClnCor:  largest displacement from symmetrization is 3.81D-13 for atom     9.
 Variable       Old X    -DE/DX   Delta X   Delta X   Delta X     New X
                                 (Linear)    (Quad)   (Total)
    R1        2.89238   0.00024   0.00149   0.00007   0.00156   2.89393
    R2        2.06961  -0.00012   0.00038  -0.00059  -0.00022   2.06939
    R3        2.07196  -0.00014   0.00071  -0.00081  -0.00010   2.07186
    R4        2.07196  -0.00014   0.00071  -0.00081  -0.00010   2.07186
    R5        2.89238   0.00024   0.00149   0.00007   0.00156   2.89393
    R6        2.07562  -0.00032  -0.00024  -0.00091  -0.00116   2.07447
    R7        2.07562  -0.00032  -0.00024  -0.00091  -0.00116   2.07447
    R8        2.07196  -0.00014   0.00071  -0.00081  -0.00010   2.07186
    R9        2.06961  -0.00012   0.00038  -0.00059  -0.00022   2.06939
   R10        2.07196  -0.00014   0.00071  -0.00081  -0.00010   2.07186
    A1        1.95208  -0.00057  -0.00047  -0.00405  -0.00452   1.94756
    A2        1.94029  -0.00006  -0.00006  -0.00019  -0.00026   1.94003
    A3        1.94029  -0.00006  -0.00006  -0.00019  -0.00026   1.94003
    A4        1.87734   0.00030   0.00014   0.00163   0.00177   1.87911
    A5        1.87734   0.00030   0.00014   0.00163   0.00177   1.87911
    A6        1.87292   0.00014   0.00036   0.00149   0.00185   1.87477
    A7        1.97269   0.00006   0.00075  -0.00141  -0.00066   1.97203
    A8        1.91091  -0.00009  -0.00048  -0.00087  -0.00135   1.90956
    A9        1.91091  -0.00009  -0.00048  -0.00087  -0.00135   1.90956
   A10        1.91091  -0.00009  -0.00048  -0.00087  -0.00135   1.90956
   A11        1.91091  -0.00009  -0.00048  -0.00087  -0.00135   1.90956
   A12        1.84303   0.00030   0.00117   0.00537   0.00654   1.84957
   A13        1.94029  -0.00006  -0.00006  -0.00019  -0.00026   1.94003
   A14        1.95208  -0.00057  -0.00047  -0.00405  -0.00452   1.94756
   A15        1.94029  -0.00006  -0.00006  -0.00019  -0.00026   1.94003
   A16        1.87734   0.00030   0.00014   0.00163   0.00177   1.87911
   A17        1.87292   0.00014   0.00036   0.00149   0.00185   1.87477
   A18        1.87734   0.00030   0.00014   0.00163   0.00177   1.87911
    D1        3.14159   0.00000   0.00000  -0.00000   0.00000   3.14159
    D2        1.00641   0.00013   0.00044   0.00273   0.00317   1.00958
    D3       -1.00641  -0.00013  -0.00044  -0.00273  -0.00317  -1.00958
    D4        1.04268   0.00005   0.00019   0.00081   0.00100   1.04368
    D5       -1.09250   0.00018   0.00062   0.00354   0.00416  -1.08833
    D6       -3.10532  -0.00008  -0.00025  -0.00192  -0.00217  -3.10749
    D7       -1.04268  -0.00005  -0.00019  -0.00081  -0.00100  -1.04368
    D8        3.10532   0.00008   0.00025   0.00192   0.00217   3.10749
    D9        1.09250  -0.00018  -0.00062  -0.00354  -0.00416   1.08833
   D10       -1.04268  -0.00005  -0.00019  -0.00081  -0.00100  -1.04368
   D11        3.14159  -0.00000   0.00000  -0.00000   0.00000   3.14159
   D12        1.04268   0.00005   0.00019   0.00081   0.00100   1.04368
   D13        1.09250  -0.00018  -0.00062  -0.00354  -0.00416   1.08833
   D14       -1.00641  -0.00013  -0.00044  -0.00273  -0.00317  -1.00958
   D15       -3.10532  -0.00008  -0.00025  -0.00192  -0.00217  -3.10749
   D16        3.10532   0.00008   0.00025   0.00192   0.00217   3.10749
   D17        1.00641   0.00013   0.00044   0.00273   0.00317   1.00958
   D18       -1.09250   0.00018   0.00062   0.00354   0.00416  -1.08833
         Item               Value     Threshold  Converged?
 Maximum Force            0.000575     0.000450     NO 
 RMS     Force            0.000201     0.000300     YES
 Maximum Displacement     0.005796     0.001800     NO 
 RMS     Displacement     0.002091     0.001200     NO 
 Predicted change in Energy=-8.591612D-06
 GradGradGradGradGradGradGradGradGradGradGradGradGradGradGradGradGradGrad

                          Input orientation:                          
 ---------------------------------------------------------------------
 Center     Atomic      Atomic             Coordinates (Angstroms)
 Number     Number       Type             X           Y           Z
 ---------------------------------------------------------------------
      1          6           0       -1.276934   -0.269166    0.000000
      2          6           0       -0.000000    0.576194    0.000000
      3          6           0        1.276933   -0.269165    0.000000
      4          1           0       -2.174981    0.357494    0.000000
      5          1           0       -1.322939   -0.916479    0.883697
      6          1           0       -1.322939   -0.916479   -0.883697
      7          1           0       -0.000000    1.237050    0.876553
      8          1           0       -0.000000    1.237050   -0.876553
      9          1           0        1.322939   -0.916479    0.883697
     10          1           0        2.174981    0.357495    0.000000
     11          1           0        1.322939   -0.916479   -0.883697
 ---------------------------------------------------------------------
                    Distance matrix (angstroms):
                    1          2          3          4          5
     1  C    0.000000
     2  C    1.531402   0.000000
     3  C    2.553867   1.531402   0.000000
     4  H    1.095076   2.185949   3.508335   0.000000
     5  H    1.096381   2.181550   2.821218   1.769154   0.000000
     6  H    1.096381   2.181550   2.821218   1.769154   1.767395
     7  H    2.160461   1.097760   2.160461   2.504497   2.527431
     8  H    2.160461   1.097760   2.160461   2.504497   3.079990
     9  H    2.821218   2.181550   1.096381   3.826143   2.645878
    10  H    3.508335   2.185949   1.095076   4.349962   3.826143
    11  H    2.821218   2.181550   1.096381   3.826143   3.181879
                    6          7          8          9         10
     6  H    0.000000
     7  H    3.079990   0.000000
     8  H    2.527431   1.753106   0.000000
     9  H    3.181879   2.527431   3.079990   0.000000
    10  H    3.826143   2.504497   2.504497   1.769154   0.000000
    11  H    2.645878   3.079990   2.527431   1.767395   1.769154
                   11
    11  H    0.000000
 Stoichiometry    C3H8
 Framework group  C2V[C2(C),SGV(C2H2),SGV'(H2),X(H4)]
 Deg. of freedom     9
 Full point group                 C2V     NOp   4
 Largest Abelian subgroup         C2V     NOp   4
 Largest concise Abelian subgroup C2V     NOp   4
                         Standard orientation:                         
 ---------------------------------------------------------------------
 Center     Atomic      Atomic             Coordinates (Angstroms)
 Number     Number       Type             X           Y           Z
 ---------------------------------------------------------------------
      1          6           0        0.000000   -1.276933   -0.259564
      2          6           0       -0.000000   -0.000000    0.585796
      3          6           0        0.000000    1.276933   -0.259564
      4          1           0        0.000000   -2.174981    0.367096
      5          1           0        0.883697   -1.322939   -0.906877
      6          1           0       -0.883697   -1.322939   -0.906877
      7          1           0        0.876553   -0.000000    1.246652
      8          1           0       -0.876553    0.000000    1.246652
      9          1           0        0.883697    1.322939   -0.906877
     10          1           0        0.000000    2.174981    0.367096
     11          1           0       -0.883697    1.322939   -0.906877
 ---------------------------------------------------------------------
 Rotational constants (GHZ):          29.4719602           8.3643178           7.4129738
 Standard basis: 6-31G(d,p) (6D, 7F)
 There are    32 symmetry adapted cartesian basis functions of A1  symmetry.
 There are    12 symmetry adapted cartesian basis functions of A2  symmetry.
 There are    17 symmetry adapted cartesian basis functions of B1  symmetry.
 There are    24 symmetry adapted cartesian basis functions of B2  symmetry.
 There are    32 symmetry adapted basis functions of A1  symmetry.
 There are    12 symmetry adapted basis functions of A2  symmetry.
 There are    17 symmetry adapted basis functions of B1  symmetry.
 There are    24 symmetry adapted basis functions of B2  symmetry.
    85 basis functions,   140 primitive gaussians,    85 cartesian basis functions
    13 alpha electrons       13 beta electrons
       nuclear repulsion energy        82.2976555057 Hartrees.
 NAtoms=   11 NActive=   11 NUniq=    5 SFac= 4.00D+00 NAtFMM=   60 NAOKFM=F Big=F
 Integral buffers will be    131072 words long.
 Raffenetti 2 integral format.
 Two-electron integral symmetry is turned on.
 One-electron integrals computed using PRISM.
 NBasis=    85 RedAO= T EigKep=  6.06D-03  NBF=    32    12    17    24
 NBsUse=    85 1.00D-06 EigRej= -1.00D+00 NBFU=    32    12    17    24
 Initial guess from the checkpoint file:  "CCC.chk"
 B after Tr=     0.000000   -0.000000    0.000000
         Rot=    1.000000    0.000000   -0.000000    0.000000 Ang=   0.00 deg.
 Initial guess orbital symmetries:
       Occupied  (A1) (B2) (A1) (A1) (B2) (A1) (B1) (A1) (B2) (A2)
                 (B2) (A1) (B1)
       Virtual   (A1) (B1) (B2) (A1) (A1) (B1) (A2) (B2) (A1) (B2)
                 (A1) (B2) (B1) (A1) (A2) (A1) (B2) (B1) (B2) (B1)
                 (A1) (B2) (A2) (A1) (B1) (A1) (B2) (A1) (A2) (A1)
                 (B2) (B2) (A1) (B1) (A2) (B2) (A1) (A1) (A2) (B1)
                 (B1) (A2) (A1) (B1) (B2) (B1) (A1) (A2) (B2) (B1)
                 (B2) (A1) (A2) (B2) (A1) (B2) (A1) (B1) (A2) (A1)
                 (B2) (A1) (B2) (A1) (B1) (B2) (A2) (A1) (B1) (A1)
                 (B2) (A1)
 Keep R1 ints in memory in symmetry-blocked form, NReq=13972750.
 Requested convergence on RMS density matrix=1.00D-08 within 128 cycles.
 Requested convergence on MAX density matrix=1.00D-06.
 Requested convergence on             energy=1.00D-06.
 Level shift goal  0.100 maximum shift  0.100.
 No special actions if energy rises.
 Dynamic level shift is on during FON iterations.
 SCF Done:  E(RB3LYP) =  -119.155359498     A.U. after    7 cycles
            NFock=  7  Conv=0.39D-08     -V/T= 2.0106
 Calling FoFJK, ICntrl=      2127 FMM=F ISym2X=1 I1Cent= 0 IOpClX= 0 NMat=1 NMatS=1 NMatT=0.
 ***** Axes restored to original set *****
 -------------------------------------------------------------------
 Center     Atomic                   Forces (Hartrees/Bohr)
 Number     Number              X              Y              Z
 -------------------------------------------------------------------
      1        6          -0.000212604   -0.000216523    0.000000000
      2        6          -0.000000000    0.000148769    0.000000000
      3        6           0.000212604   -0.000216523   -0.000000000
      4        1           0.000040943   -0.000015770   -0.000000000
      5        1           0.000033595    0.000105378   -0.000124713
      6        1           0.000033595    0.000105378    0.000124713
      7        1           0.000000000   -0.000052847   -0.000011456
      8        1           0.000000000   -0.000052847    0.000011456
      9        1          -0.000033595    0.000105378   -0.000124713
     10        1          -0.000040943   -0.000015770   -0.000000000
     11        1          -0.000033595    0.000105378    0.000124713
 -------------------------------------------------------------------
 Cartesian Forces:  Max     0.000216523 RMS     0.000099566

 GradGradGradGradGradGradGradGradGradGradGradGradGradGradGradGradGradGrad
 Berny optimization.
 Using GEDIIS/GDIIS optimizer.
 FormGI is forming the generalized inverse of G from B-inverse, IUseBI=4.
 Internal  Forces:  Max     0.000164146 RMS     0.000056848
 Search for a local minimum.
 Step number   3 out of a maximum of   56
 All quantities printed in internal units (Hartrees-Bohrs-Radians)
 Mixed Optimization -- En-DIIS/RFO-DIIS
 Swapping is turned off.
 Update second derivatives using D2CorX and points    1    2    3
 DE= -9.25D-06 DEPred=-8.59D-06 R= 1.08D+00
 TightC=F SS=  1.41D+00  RLast= 1.58D-02 DXNew= 5.0454D-01 4.7533D-02
 Trust test= 1.08D+00 RLast= 1.58D-02 DXMaxT set to 3.00D-01
 ITU=  1  1  0
     Eigenvalues ---    0.00481   0.00481   0.03571   0.04408   0.05515
     Eigenvalues ---    0.05515   0.05577   0.05580   0.08471   0.12290
     Eigenvalues ---    0.14451   0.16000   0.16000   0.16000   0.16000
     Eigenvalues ---    0.16240   0.21844   0.29128   0.30219   0.33585
     Eigenvalues ---    0.33697   0.34481   0.34571   0.34571   0.34571
     Eigenvalues ---    0.34584   0.37565
 En-DIIS/RFO-DIIS/Sim-DIIS IScMMF=       -3 using points:     3    2
 RFO step:  Lambda=-5.49881547D-07.
 DidBck=F Rises=F RFO-DIIS coefs:    1.07323   -0.07323
 Iteration  1 RMS(Cart)=  0.00024926 RMS(Int)=  0.00000011
 Iteration  2 RMS(Cart)=  0.00000003 RMS(Int)=  0.00000010
 ClnCor:  largest displacement from symmetrization is 7.42D-13 for atom     9.
 Variable       Old X    -DE/DX   Delta X   Delta X   Delta X     New X
                                 (Linear)    (Quad)   (Total)
    R1        2.89393   0.00010   0.00011   0.00035   0.00046   2.89439
    R2        2.06939  -0.00004  -0.00002  -0.00010  -0.00012   2.06928
    R3        2.07186  -0.00016  -0.00001  -0.00046  -0.00047   2.07139
    R4        2.07186  -0.00016  -0.00001  -0.00046  -0.00047   2.07139
    R5        2.89393   0.00010   0.00011   0.00035   0.00046   2.89439
    R6        2.07447  -0.00004  -0.00008  -0.00009  -0.00017   2.07429
    R7        2.07447  -0.00004  -0.00008  -0.00009  -0.00017   2.07429
    R8        2.07186  -0.00016  -0.00001  -0.00046  -0.00047   2.07139
    R9        2.06939  -0.00004  -0.00002  -0.00010  -0.00012   2.06928
   R10        2.07186  -0.00016  -0.00001  -0.00046  -0.00047   2.07139
    A1        1.94756   0.00000  -0.00033   0.00023  -0.00010   1.94746
    A2        1.94003  -0.00003  -0.00002  -0.00023  -0.00025   1.93979
    A3        1.94003  -0.00003  -0.00002  -0.00023  -0.00025   1.93979
    A4        1.87911   0.00002   0.00013   0.00009   0.00022   1.87933
    A5        1.87911   0.00002   0.00013   0.00009   0.00022   1.87933
    A6        1.87477   0.00003   0.00014   0.00006   0.00020   1.87497
    A7        1.97203   0.00006  -0.00005   0.00029   0.00024   1.97227
    A8        1.90956  -0.00002  -0.00010  -0.00010  -0.00020   1.90936
    A9        1.90956  -0.00002  -0.00010  -0.00010  -0.00020   1.90936
   A10        1.90956  -0.00002  -0.00010  -0.00010  -0.00020   1.90936
   A11        1.90956  -0.00002  -0.00010  -0.00010  -0.00020   1.90936
   A12        1.84957   0.00003   0.00048   0.00009   0.00057   1.85014
   A13        1.94003  -0.00003  -0.00002  -0.00023  -0.00025   1.93979
   A14        1.94756   0.00000  -0.00033   0.00023  -0.00010   1.94746
   A15        1.94003  -0.00003  -0.00002  -0.00023  -0.00025   1.93979
   A16        1.87911   0.00002   0.00013   0.00009   0.00022   1.87933
   A17        1.87477   0.00003   0.00014   0.00006   0.00020   1.87497
   A18        1.87911   0.00002   0.00013   0.00009   0.00022   1.87933
    D1        3.14159   0.00000   0.00000   0.00000   0.00000   3.14159
    D2        1.00958   0.00000   0.00023  -0.00000   0.00023   1.00981
    D3       -1.00958  -0.00000  -0.00023   0.00000  -0.00023  -1.00981
    D4        1.04368  -0.00000   0.00007  -0.00011  -0.00004   1.04364
    D5       -1.08833   0.00000   0.00030  -0.00012   0.00019  -1.08815
    D6       -3.10749  -0.00001  -0.00016  -0.00011  -0.00027  -3.10776
    D7       -1.04368   0.00000  -0.00007   0.00011   0.00004  -1.04364
    D8        3.10749   0.00001   0.00016   0.00011   0.00027   3.10776
    D9        1.08833  -0.00000  -0.00030   0.00012  -0.00019   1.08815
   D10       -1.04368   0.00000  -0.00007   0.00011   0.00004  -1.04364
   D11        3.14159  -0.00000   0.00000   0.00000   0.00000   3.14159
   D12        1.04368  -0.00000   0.00007  -0.00011  -0.00004   1.04364
   D13        1.08833  -0.00000  -0.00030   0.00012  -0.00019   1.08815
   D14       -1.00958  -0.00000  -0.00023   0.00000  -0.00023  -1.00981
   D15       -3.10749  -0.00001  -0.00016  -0.00011  -0.00027  -3.10776
   D16        3.10749   0.00001   0.00016   0.00011   0.00027   3.10776
   D17        1.00958   0.00000   0.00023  -0.00000   0.00023   1.00981
   D18       -1.08833   0.00000   0.00030  -0.00012   0.00019  -1.08815
         Item               Value     Threshold  Converged?
 Maximum Force            0.000164     0.000450     YES
 RMS     Force            0.000057     0.000300     YES
 Maximum Displacement     0.000702     0.001800     YES
 RMS     Displacement     0.000249     0.001200     YES
 Predicted change in Energy=-2.749392D-07
 Optimization completed.
    -- Stationary point found.
                           ----------------------------
                           !   Optimized Parameters   !
                           ! (Angstroms and Degrees)  !
 --------------------------                            --------------------------
 ! Name  Definition              Value          Derivative Info.                !
 --------------------------------------------------------------------------------
 ! R1    R(1,2)                  1.5314         -DE/DX =    0.0001              !
 ! R2    R(1,4)                  1.0951         -DE/DX =    0.0                 !
 ! R3    R(1,5)                  1.0964         -DE/DX =   -0.0002              !
 ! R4    R(1,6)                  1.0964         -DE/DX =   -0.0002              !
 ! R5    R(2,3)                  1.5314         -DE/DX =    0.0001              !
 ! R6    R(2,7)                  1.0978         -DE/DX =    0.0                 !
 ! R7    R(2,8)                  1.0978         -DE/DX =    0.0                 !
 ! R8    R(3,9)                  1.0964         -DE/DX =   -0.0002              !
 ! R9    R(3,10)                 1.0951         -DE/DX =    0.0                 !
 ! R10   R(3,11)                 1.0964         -DE/DX =   -0.0002              !
 ! A1    A(2,1,4)              111.5871         -DE/DX =    0.0                 !
 ! A2    A(2,1,5)              111.1557         -DE/DX =    0.0                 !
 ! A3    A(2,1,6)              111.1557         -DE/DX =    0.0                 !
 ! A4    A(4,1,5)              107.665          -DE/DX =    0.0                 !
 ! A5    A(4,1,6)              107.665          -DE/DX =    0.0                 !
 ! A6    A(5,1,6)              107.4164         -DE/DX =    0.0                 !
 ! A7    A(1,2,3)              112.989          -DE/DX =    0.0001              !
 ! A8    A(1,2,7)              109.4094         -DE/DX =    0.0                 !
 ! A9    A(1,2,8)              109.4094         -DE/DX =    0.0                 !
 ! A10   A(3,2,7)              109.4094         -DE/DX =    0.0                 !
 ! A11   A(3,2,8)              109.4094         -DE/DX =    0.0                 !
 ! A12   A(7,2,8)              105.9728         -DE/DX =    0.0                 !
 ! A13   A(2,3,9)              111.1557         -DE/DX =    0.0                 !
 ! A14   A(2,3,10)             111.5871         -DE/DX =    0.0                 !
 ! A15   A(2,3,11)             111.1557         -DE/DX =    0.0                 !
 ! A16   A(9,3,10)             107.665          -DE/DX =    0.0                 !
 ! A17   A(9,3,11)             107.4164         -DE/DX =    0.0                 !
 ! A18   A(10,3,11)            107.665          -DE/DX =    0.0                 !
 ! D1    D(4,1,2,3)            180.0            -DE/DX =    0.0                 !
 ! D2    D(4,1,2,7)             57.8445         -DE/DX =    0.0                 !
 ! D3    D(4,1,2,8)            -57.8445         -DE/DX =    0.0                 !
 ! D4    D(5,1,2,3)             59.7985         -DE/DX =    0.0                 !
 ! D5    D(5,1,2,7)            -62.357          -DE/DX =    0.0                 !
 ! D6    D(5,1,2,8)           -178.046          -DE/DX =    0.0                 !
 ! D7    D(6,1,2,3)            -59.7985         -DE/DX =    0.0                 !
 ! D8    D(6,1,2,7)            178.046          -DE/DX =    0.0                 !
 ! D9    D(6,1,2,8)             62.357          -DE/DX =    0.0                 !
 ! D10   D(1,2,3,9)            -59.7985         -DE/DX =    0.0                 !
 ! D11   D(1,2,3,10)           180.0            -DE/DX =    0.0                 !
 ! D12   D(1,2,3,11)            59.7985         -DE/DX =    0.0                 !
 ! D13   D(7,2,3,9)             62.357          -DE/DX =    0.0                 !
 ! D14   D(7,2,3,10)           -57.8445         -DE/DX =    0.0                 !
 ! D15   D(7,2,3,11)          -178.046          -DE/DX =    0.0                 !
 ! D16   D(8,2,3,9)            178.046          -DE/DX =    0.0                 !
 ! D17   D(8,2,3,10)            57.8445         -DE/DX =    0.0                 !
 ! D18   D(8,2,3,11)           -62.357          -DE/DX =    0.0                 !
 --------------------------------------------------------------------------------
 GradGradGradGradGradGradGradGradGradGradGradGradGradGradGradGradGradGrad

                          Input orientation:                          
 ---------------------------------------------------------------------
 Center     Atomic      Atomic             Coordinates (Angstroms)
 Number     Number       Type             X           Y           Z
 ---------------------------------------------------------------------
      1          6           0       -1.276934   -0.269166    0.000000
      2          6           0       -0.000000    0.576194    0.000000
      3          6           0        1.276933   -0.269165    0.000000
      4          1           0       -2.174981    0.357494    0.000000
      5          1           0       -1.322939   -0.916479    0.883697
      6          1           0       -1.322939   -0.916479   -0.883697
      7          1           0       -0.000000    1.237050    0.876553
      8          1           0       -0.000000    1.237050   -0.876553
      9          1           0        1.322939   -0.916479    0.883697
     10          1           0        2.174981    0.357495    0.000000
     11          1           0        1.322939   -0.916479   -0.883697
 ---------------------------------------------------------------------
                    Distance matrix (angstroms):
                    1          2          3          4          5
     1  C    0.000000
     2  C    1.531402   0.000000
     3  C    2.553867   1.531402   0.000000
     4  H    1.095076   2.185949   3.508335   0.000000
     5  H    1.096381   2.181550   2.821218   1.769154   0.000000
     6  H    1.096381   2.181550   2.821218   1.769154   1.767395
     7  H    2.160461   1.097760   2.160461   2.504497   2.527431
     8  H    2.160461   1.097760   2.160461   2.504497   3.079990
     9  H    2.821218   2.181550   1.096381   3.826143   2.645878
    10  H    3.508335   2.185949   1.095076   4.349962   3.826143
    11  H    2.821218   2.181550   1.096381   3.826143   3.181879
                    6          7          8          9         10
     6  H    0.000000
     7  H    3.079990   0.000000
     8  H    2.527431   1.753106   0.000000
     9  H    3.181879   2.527431   3.079990   0.000000
    10  H    3.826143   2.504497   2.504497   1.769154   0.000000
    11  H    2.645878   3.079990   2.527431   1.767395   1.769154
                   11
    11  H    0.000000
 Stoichiometry    C3H8
 Framework group  C2V[C2(C),SGV(C2H2),SGV'(H2),X(H4)]
 Deg. of freedom     9
 Full point group                 C2V     NOp   4
 Largest Abelian subgroup         C2V     NOp   4
 Largest concise Abelian subgroup C2V     NOp   4
                         Standard orientation:                         
 ---------------------------------------------------------------------
 Center     Atomic      Atomic             Coordinates (Angstroms)
 Number     Number       Type             X           Y           Z
 ---------------------------------------------------------------------
      1          6           0        0.000000   -1.276933   -0.259564
      2          6           0       -0.000000   -0.000000    0.585796
      3          6           0        0.000000    1.276933   -0.259564
      4          1           0        0.000000   -2.174981    0.367096
      5          1           0        0.883697   -1.322939   -0.906877
      6          1           0       -0.883697   -1.322939   -0.906877
      7          1           0        0.876553   -0.000000    1.246652
      8          1           0       -0.876553    0.000000    1.246652
      9          1           0        0.883697    1.322939   -0.906877
     10          1           0        0.000000    2.174981    0.367096
     11          1           0       -0.883697    1.322939   -0.906877
 ---------------------------------------------------------------------
 Rotational constants (GHZ):          29.4719602           8.3643178           7.4129738

 **********************************************************************

            Population analysis using the SCF Density.

 **********************************************************************

 Orbital symmetries:
       Occupied  (A1) (B2) (A1) (A1) (B2) (A1) (B1) (A1) (B2) (A2)
                 (B2) (A1) (B1)
       Virtual   (A1) (B1) (B2) (A1) (A1) (B1) (A2) (B2) (A1) (B2)
                 (A1) (B2) (B1) (A1) (A2) (A1) (B2) (B1) (B2) (B1)
                 (A1) (B2) (A2) (A1) (B1) (A1) (B2) (A1) (A2) (A1)
                 (B2) (B2) (A1) (B1) (A2) (B2) (A1) (A1) (A2) (B1)
                 (B1) (A2) (A1) (B1) (B2) (B1) (A1) (A2) (B2) (B1)
                 (B2) (A1) (A2) (B2) (A1) (B2) (A1) (B1) (A2) (A1)
                 (B2) (A1) (B2) (A1) (B1) (B2) (A2) (A1) (B1) (A1)
                 (B2) (A1)
 The electronic state is 1-A1.
 Alpha  occ. eigenvalues --  -10.17853 -10.17024 -10.17023  -0.77434  -0.67583
 Alpha  occ. eigenvalues --   -0.58007  -0.45087  -0.43076  -0.39307  -0.37578
 Alpha  occ. eigenvalues --   -0.33329  -0.33218  -0.32333
 Alpha virt. eigenvalues --    0.09613   0.14834   0.14991   0.15032   0.17054
 Alpha virt. eigenvalues --    0.19350   0.19401   0.19691   0.22696   0.26618
 Alpha virt. eigenvalues --    0.50903   0.51331   0.54348   0.54931   0.57324
 Alpha virt. eigenvalues --    0.66437   0.69732   0.70952   0.76683   0.85607
 Alpha virt. eigenvalues --    0.86402   0.86592   0.89551   0.90132   0.93019
 Alpha virt. eigenvalues --    0.94385   0.95811   1.03330   1.30687   1.31200
 Alpha virt. eigenvalues --    1.37574   1.53715   1.55241   1.66713   1.69594
 Alpha virt. eigenvalues --    1.83253   1.85361   1.91521   2.05275   2.05407
 Alpha virt. eigenvalues --    2.06980   2.08467   2.10948   2.11222   2.11400
 Alpha virt. eigenvalues --    2.24937   2.25089   2.29681   2.31813   2.42614
 Alpha virt. eigenvalues --    2.44814   2.50781   2.65232   2.68997   2.72223
 Alpha virt. eigenvalues --    2.74156   2.81166   2.87021   2.90765   2.91087
 Alpha virt. eigenvalues --    2.91139   3.15586   3.22289   3.31344   3.34268
 Alpha virt. eigenvalues --    3.42804   3.48600   3.50438   3.56715   4.29900
 Alpha virt. eigenvalues --    4.49394   4.64164
          Condensed to atoms (all electrons):
               1          2          3          4          5          6
     1  C    4.906929   0.382122  -0.050396   0.380728   0.386692   0.386692
     2  C    0.382122   4.829057   0.382122  -0.028280  -0.036022  -0.036022
     3  C   -0.050396   0.382122   4.906929   0.004600  -0.004406  -0.004406
     4  H    0.380728  -0.028280   0.004600   0.614298  -0.032136  -0.032136
     5  H    0.386692  -0.036022  -0.004406  -0.032136   0.614093  -0.034077
     6  H    0.386692  -0.036022  -0.004406  -0.032136  -0.034077   0.614093
     7  H   -0.039226   0.389544  -0.039226  -0.003134  -0.005094   0.005541
     8  H   -0.039226   0.389544  -0.039226  -0.003134   0.005541  -0.005094
     9  H   -0.004406  -0.036022   0.386692  -0.000012   0.004825  -0.000426
    10  H    0.004600  -0.028280   0.380728  -0.000196  -0.000012  -0.000012
    11  H   -0.004406  -0.036022   0.386692  -0.000012  -0.000426   0.004825
               7          8          9         10         11
     1  C   -0.039226  -0.039226  -0.004406   0.004600  -0.004406
     2  C    0.389544   0.389544  -0.036022  -0.028280  -0.036022
     3  C   -0.039226  -0.039226   0.386692   0.380728   0.386692
     4  H   -0.003134  -0.003134  -0.000012  -0.000196  -0.000012
     5  H   -0.005094   0.005541   0.004825  -0.000012  -0.000426
     6  H    0.005541  -0.005094  -0.000426  -0.000012   0.004825
     7  H    0.639894  -0.040119  -0.005094  -0.003134   0.005541
     8  H   -0.040119   0.639894   0.005541  -0.003134  -0.005094
     9  H   -0.005094   0.005541   0.614093  -0.032136  -0.034077
    10  H   -0.003134  -0.003134  -0.032136   0.614298  -0.032136
    11  H    0.005541  -0.005094  -0.034077  -0.032136   0.614093
 Mulliken charges:
               1
     1  C   -0.310101
     2  C   -0.171739
     3  C   -0.310101
     4  H    0.099416
     5  H    0.101023
     6  H    0.101023
     7  H    0.094509
     8  H    0.094509
     9  H    0.101023
    10  H    0.099416
    11  H    0.101023
 Sum of Mulliken charges =   0.00000
 Mulliken charges with hydrogens summed into heavy atoms:
               1
     1  C   -0.008639
     2  C    0.017278
     3  C   -0.008639
 Electronic spatial extent (au):  <R**2>=            227.4222
 Charge=              0.0000 electrons
 Dipole moment (field-independent basis, Debye):
    X=              0.0000    Y=             -0.0000    Z=              0.0498  Tot=              0.0498
 Quadrupole moment (field-independent basis, Debye-Ang):
   XX=            -21.2620   YY=            -21.8280   ZZ=            -21.5656
   XY=             -0.0000   XZ=             -0.0000   YZ=             -0.0000
 Traceless Quadrupole moment (field-independent basis, Debye-Ang):
   XX=              0.2899   YY=             -0.2761   ZZ=             -0.0137
   XY=             -0.0000   XZ=             -0.0000   YZ=             -0.0000
 Octapole moment (field-independent basis, Debye-Ang**2):
  XXX=             -0.0000  YYY=             -0.0000  ZZZ=              0.1925  XYY=             -0.0000
  XXY=              0.0000  XXZ=             -0.4575  XZZ=             -0.0000  YZZ=              0.0000
  YYZ=              1.1451  XYZ=              0.0000
 Hexadecapole moment (field-independent basis, Debye-Ang**3):
 XXXX=            -42.8259 YYYY=           -200.7730 ZZZZ=            -69.3408 XXXY=             -0.0000
 XXXZ=              0.0000 YYYX=             -0.0000 YYYZ=             -0.0000 ZZZX=             -0.0000
 ZZZY=             -0.0000 XXYY=            -41.4198 XXZZ=            -16.8816 YYZZ=            -44.7259
 XXYZ=             -0.0000 YYXZ=              0.0000 ZZXY=             -0.0000
 N-N= 8.229765550568D+01 E-N=-4.392151853422D+02  KE= 1.179036359927D+02
 Symmetry A1   KE= 7.297168980295D+01
 Symmetry A2   KE= 2.013085359726D+00
 Symmetry B1   KE= 3.838872564922D+00
 Symmetry B2   KE= 3.907998826509D+01
 Unable to Open any file for archive entry.
 1\1\GINC-LOCALHOST\FOpt\RB3LYP\6-31G(d,p)\C3H8\ROOT\03-May-2022\0\\# o
 pt freq=hinderedrotor B3LYP/6-31g(d,p) scf=fermi symm=veryloose press=
 0.987\\CCC_1\\0,1\C,-1.2769335433,-0.2691658853,0.\C,-0.0000002188,0.5
 761941418,0.\C,1.2769333796,-0.2691654715,0.\H,-2.1749812088,0.3574941
 394,0.\H,-1.3229389393,-0.9164789559,0.8836973153\H,-1.3229389393,-0.9
 164789559,-0.8836973153\H,-0.0000003259,1.2370503324,0.8765531115\H,-0
 .0000003259,1.2370503324,-0.8765531115\H,1.3229389854,-0.9164785272,0.
 8836973153\H,2.174980842,0.3574948442,0.\H,1.3229389854,-0.9164785272,
 -0.8836973153\\Version=ES64L-G16RevC.01\State=1-A1\HF=-119.1553595\RMS
 D=3.911e-09\RMSF=9.957e-05\Dipole=0.,0.0195876,0.\Quadrupole=-0.205302
 3,-0.0101952,0.2154975,0.,0.,0.\PG=C02V [C2(C1),SGV(C2H2),SGV'(H2),X(H
 4)]\\@
 The archive entry for this job was punched.


 DO NOT LET SELFISH MEN OR GREEDY INTERESTS SKIN YOUR COUNTRY OF ITS
 BEAUTY, ITS RICHES, OR ITS ROMANCE. -- THEODORE ROOSEVELT
 Job cpu time:       0 days  0 hours  0 minutes 48.4 seconds.
 Elapsed time:       0 days  0 hours  0 minutes  7.0 seconds.
 File lengths (MBytes):  RWF=     10 Int=      0 D2E=      0 Chk=      2 Scr=      1
 Normal termination of Gaussian 16 at Tue May  3 12:02:49 2022.
 Link1:  Proceeding to internal job step number  2.
 ----------------------------------------------------------------------
 #N Geom=AllCheck Guess=TCheck SCRF=Check GenChk RB3LYP/6-31G(d,p) Freq
 ----------------------------------------------------------------------
 1/10=4,18=20,29=7,30=1,38=1,40=1,113=-987000/1,3;
 2/12=2,17=2,18=2,40=1/2;
 3/5=1,6=6,7=101,11=2,14=-4,25=1,30=1,70=2,71=2,74=-5,116=1,140=1/1,2,3;
 4/5=101/1;
 5/5=2,22=13,38=6,98=1/2;
 8/6=4,10=90,11=11/1;
 11/6=1,8=1,9=11,15=111,16=1/1,2,10;
 10/6=1/2;
 6/7=2,8=2,9=2,10=2,28=1/1;
 7/8=2001,10=1,25=1/1,2,3,16;
 1/10=4,18=20,30=1/3;
 99//99;
 Structure from the checkpoint file:  "CCC.chk"
 -----
 CCC_1
 -----
 Charge =  0 Multiplicity = 1
 Redundant internal coordinates found in file.  (old form).
 C,0,-1.2769335433,-0.2691658853,0.
 C,0,-0.0000002188,0.5761941418,0.
 C,0,1.2769333796,-0.2691654715,0.
 H,0,-2.1749812088,0.3574941394,0.
 H,0,-1.3229389393,-0.9164789559,0.8836973153
 H,0,-1.3229389393,-0.9164789559,-0.8836973153
 H,0,-0.0000003259,1.2370503324,0.8765531115
 H,0,-0.0000003259,1.2370503324,-0.8765531115
 H,0,1.3229389854,-0.9164785272,0.8836973153
 H,0,2.174980842,0.3574948442,0.
 H,0,1.3229389854,-0.9164785272,-0.8836973153
 Recover connectivity data from disk.

 GradGradGradGradGradGradGradGradGradGradGradGradGradGradGradGradGradGrad
 Berny optimization.
 Initialization pass.
                           ----------------------------
                           !    Initial Parameters    !
                           ! (Angstroms and Degrees)  !
 --------------------------                            --------------------------
 ! Name  Definition              Value          Derivative Info.                !
 --------------------------------------------------------------------------------
 ! R1    R(1,2)                  1.5314         calculate D2E/DX2 analytically  !
 ! R2    R(1,4)                  1.0951         calculate D2E/DX2 analytically  !
 ! R3    R(1,5)                  1.0964         calculate D2E/DX2 analytically  !
 ! R4    R(1,6)                  1.0964         calculate D2E/DX2 analytically  !
 ! R5    R(2,3)                  1.5314         calculate D2E/DX2 analytically  !
 ! R6    R(2,7)                  1.0978         calculate D2E/DX2 analytically  !
 ! R7    R(2,8)                  1.0978         calculate D2E/DX2 analytically  !
 ! R8    R(3,9)                  1.0964         calculate D2E/DX2 analytically  !
 ! R9    R(3,10)                 1.0951         calculate D2E/DX2 analytically  !
 ! R10   R(3,11)                 1.0964         calculate D2E/DX2 analytically  !
 ! A1    A(2,1,4)              111.5871         calculate D2E/DX2 analytically  !
 ! A2    A(2,1,5)              111.1557         calculate D2E/DX2 analytically  !
 ! A3    A(2,1,6)              111.1557         calculate D2E/DX2 analytically  !
 ! A4    A(4,1,5)              107.665          calculate D2E/DX2 analytically  !
 ! A5    A(4,1,6)              107.665          calculate D2E/DX2 analytically  !
 ! A6    A(5,1,6)              107.4164         calculate D2E/DX2 analytically  !
 ! A7    A(1,2,3)              112.989          calculate D2E/DX2 analytically  !
 ! A8    A(1,2,7)              109.4094         calculate D2E/DX2 analytically  !
 ! A9    A(1,2,8)              109.4094         calculate D2E/DX2 analytically  !
 ! A10   A(3,2,7)              109.4094         calculate D2E/DX2 analytically  !
 ! A11   A(3,2,8)              109.4094         calculate D2E/DX2 analytically  !
 ! A12   A(7,2,8)              105.9728         calculate D2E/DX2 analytically  !
 ! A13   A(2,3,9)              111.1557         calculate D2E/DX2 analytically  !
 ! A14   A(2,3,10)             111.5871         calculate D2E/DX2 analytically  !
 ! A15   A(2,3,11)             111.1557         calculate D2E/DX2 analytically  !
 ! A16   A(9,3,10)             107.665          calculate D2E/DX2 analytically  !
 ! A17   A(9,3,11)             107.4164         calculate D2E/DX2 analytically  !
 ! A18   A(10,3,11)            107.665          calculate D2E/DX2 analytically  !
 ! D1    D(4,1,2,3)            180.0            calculate D2E/DX2 analytically  !
 ! D2    D(4,1,2,7)             57.8445         calculate D2E/DX2 analytically  !
 ! D3    D(4,1,2,8)            -57.8445         calculate D2E/DX2 analytically  !
 ! D4    D(5,1,2,3)             59.7985         calculate D2E/DX2 analytically  !
 ! D5    D(5,1,2,7)            -62.357          calculate D2E/DX2 analytically  !
 ! D6    D(5,1,2,8)           -178.046          calculate D2E/DX2 analytically  !
 ! D7    D(6,1,2,3)            -59.7985         calculate D2E/DX2 analytically  !
 ! D8    D(6,1,2,7)            178.046          calculate D2E/DX2 analytically  !
 ! D9    D(6,1,2,8)             62.357          calculate D2E/DX2 analytically  !
 ! D10   D(1,2,3,9)            -59.7985         calculate D2E/DX2 analytically  !
 ! D11   D(1,2,3,10)           180.0            calculate D2E/DX2 analytically  !
 ! D12   D(1,2,3,11)            59.7985         calculate D2E/DX2 analytically  !
 ! D13   D(7,2,3,9)             62.357          calculate D2E/DX2 analytically  !
 ! D14   D(7,2,3,10)           -57.8445         calculate D2E/DX2 analytically  !
 ! D15   D(7,2,3,11)          -178.046          calculate D2E/DX2 analytically  !
 ! D16   D(8,2,3,9)            178.046          calculate D2E/DX2 analytically  !
 ! D17   D(8,2,3,10)            57.8445         calculate D2E/DX2 analytically  !
 ! D18   D(8,2,3,11)           -62.357          calculate D2E/DX2 analytically  !
 --------------------------------------------------------------------------------
 Trust Radius=3.00D-01 FncErr=1.00D-07 GrdErr=1.00D-07 EigMax=2.50D+02 EigMin=1.00D-04
 Number of steps in this run=      2 maximum allowed number of steps=      2.
 GradGradGradGradGradGradGradGradGradGradGradGradGradGradGradGradGradGrad

                          Input orientation:                          
 ---------------------------------------------------------------------
 Center     Atomic      Atomic             Coordinates (Angstroms)
 Number     Number       Type             X           Y           Z
 ---------------------------------------------------------------------
      1          6           0       -1.276934   -0.269166    0.000000
      2          6           0       -0.000000    0.576194    0.000000
      3          6           0        1.276933   -0.269165    0.000000
      4          1           0       -2.174981    0.357494    0.000000
      5          1           0       -1.322939   -0.916479    0.883697
      6          1           0       -1.322939   -0.916479   -0.883697
      7          1           0       -0.000000    1.237050    0.876553
      8          1           0       -0.000000    1.237050   -0.876553
      9          1           0        1.322939   -0.916479    0.883697
     10          1           0        2.174981    0.357495    0.000000
     11          1           0        1.322939   -0.916479   -0.883697
 ---------------------------------------------------------------------
                    Distance matrix (angstroms):
                    1          2          3          4          5
     1  C    0.000000
     2  C    1.531402   0.000000
     3  C    2.553867   1.531402   0.000000
     4  H    1.095076   2.185949   3.508335   0.000000
     5  H    1.096381   2.181550   2.821218   1.769154   0.000000
     6  H    1.096381   2.181550   2.821218   1.769154   1.767395
     7  H    2.160461   1.097760   2.160461   2.504497   2.527431
     8  H    2.160461   1.097760   2.160461   2.504497   3.079990
     9  H    2.821218   2.181550   1.096381   3.826143   2.645878
    10  H    3.508335   2.185949   1.095076   4.349962   3.826143
    11  H    2.821218   2.181550   1.096381   3.826143   3.181879
                    6          7          8          9         10
     6  H    0.000000
     7  H    3.079990   0.000000
     8  H    2.527431   1.753106   0.000000
     9  H    3.181879   2.527431   3.079990   0.000000
    10  H    3.826143   2.504497   2.504497   1.769154   0.000000
    11  H    2.645878   3.079990   2.527431   1.767395   1.769154
                   11
    11  H    0.000000
 Stoichiometry    C3H8
 Framework group  C2V[C2(C),SGV(C2H2),SGV'(H2),X(H4)]
 Deg. of freedom     9
[...]
                     A2                     ?L                     B1
 Frequencies --   1504.8163              1512.8620              1522.5398
 Red. masses --      1.0388                 1.0521                 1.0407
 Frc consts  --      1.3860                 1.4188                 1.4214
 IR Inten    --      0.0000                 1.4187                 9.8055
  Atom  AN      X      Y      Z        X      Y      Z        X      Y      Z
     1   6    -0.04   0.00  -0.00     0.00   0.01  -0.04    -0.03   0.00  -0.00
     2   6     0.00   0.00   0.00     0.00   0.04  -0.00    -0.03   0.00  -0.00
     3   6     0.04  -0.00  -0.00     0.00   0.01   0.04    -0.03   0.00   0.00
     4   1     0.51  -0.00  -0.00    -0.00  -0.14  -0.23     0.51  -0.00  -0.00
     5   1     0.04  -0.34   0.10     0.28  -0.07   0.37     0.03  -0.35   0.10
     6   1     0.04   0.34  -0.10    -0.28  -0.07   0.37     0.03   0.35  -0.10
     7   1     0.00  -0.05  -0.00    -0.00  -0.09   0.00    -0.00  -0.00  -0.04
     8   1    -0.00   0.05  -0.00     0.00  -0.09   0.00    -0.00  -0.00   0.04
     9   1    -0.04  -0.34  -0.10    -0.28  -0.07  -0.37     0.03   0.35   0.10
    10   1    -0.51   0.00  -0.00    -0.00  -0.14   0.23     0.51  -0.00   0.00
    11   1    -0.04   0.34   0.10     0.28  -0.07  -0.37     0.03  -0.35  -0.10
                     19                     20                     21
                     ?L                     ?L                     B2
 Frequencies --   1528.6459              3030.0747              3031.5823
 Red. masses --      1.0782                 1.0605                 1.0355
 Frc consts  --      1.4844                 5.7369                 5.6073
 IR Inten    --      2.8743                21.8149                34.7118
  Atom  AN      X      Y      Z        X      Y      Z        X      Y      Z
     1   6     0.00   0.02  -0.02    -0.00  -0.00   0.01    -0.00   0.03   0.02
     2   6     0.00  -0.00  -0.07     0.00  -0.00  -0.07     0.00  -0.00   0.00
     3   6    -0.00  -0.02  -0.02     0.00   0.00   0.01    -0.00   0.03  -0.02
     4   1    -0.00  -0.13  -0.22    -0.00   0.01  -0.01    -0.00  -0.29   0.22
     5   1     0.23  -0.08   0.31     0.09  -0.01  -0.06     0.36  -0.01  -0.25
     6   1    -0.23  -0.08   0.31    -0.09  -0.01  -0.06    -0.36  -0.01  -0.25
     7   1    -0.26  -0.00   0.29     0.58   0.00   0.41    -0.00   0.00  -0.00
     8   1     0.26   0.00   0.29    -0.58   0.00   0.41    -0.00   0.00   0.00
     9   1     0.23   0.08   0.31     0.09   0.01  -0.06    -0.36  -0.01   0.25
    10   1     0.00   0.13  -0.22     0.00  -0.01  -0.01    -0.00  -0.29  -0.22
    11   1    -0.23   0.08   0.31    -0.09   0.01  -0.06     0.36  -0.01   0.25
                     22                     23                     24
                     A1                     ?A                     ?E
 Frequencies --   3035.6119              3057.1477              3095.9222
 Red. masses --      1.0364                 1.1025                 1.1026
 Frc consts  --      5.6267                 6.0710                 6.2264
 IR Inten    --     28.0140                 6.2492                 0.0000
  Atom  AN      X      Y      Z        X      Y      Z        X      Y      Z
     1   6     0.00   0.03   0.02     0.03   0.00   0.00    -0.07   0.00  -0.00
     2   6    -0.00  -0.00   0.01    -0.09  -0.00  -0.00    -0.00   0.00   0.00
     3   6    -0.00  -0.03   0.02     0.03   0.00  -0.00     0.07  -0.00  -0.00
     4   1     0.00  -0.31   0.23     0.01  -0.00   0.00    -0.02  -0.00   0.00
     5   1     0.34  -0.01  -0.25    -0.16   0.00   0.12     0.42  -0.01  -0.31
     6   1    -0.34  -0.01  -0.25    -0.16  -0.00  -0.12     0.42   0.01   0.31
     7   1    -0.10  -0.00  -0.07     0.54   0.00   0.41    -0.00   0.00  -0.00
     8   1     0.10   0.00  -0.07     0.54   0.00  -0.41     0.00  -0.00  -0.00
     9   1     0.34   0.01  -0.25    -0.16  -0.00   0.12    -0.42  -0.01   0.31
    10   1    -0.00   0.31   0.23     0.01  -0.00  -0.00     0.02   0.00   0.00
    11   1    -0.34   0.01  -0.25    -0.16   0.00  -0.12    -0.42   0.01  -0.31
                     25                     26                     27
                     ?A                     ?L                     ?L
 Frequencies --   3106.4717              3106.9442              3109.2745
 Red. masses --      1.1030                 1.1023                 1.1012
 Frc consts  --      6.2716                 6.2691                 6.2722
 IR Inten    --    102.2586                30.3860                53.8668
  Atom  AN      X      Y      Z        X      Y      Z        X      Y      Z
     1   6    -0.06   0.00  -0.00    -0.00  -0.04   0.06    -0.00  -0.04   0.05
     2   6    -0.04   0.00  -0.00    -0.00  -0.00  -0.00    -0.00   0.00   0.01
     3   6    -0.06   0.00   0.00    -0.00  -0.04  -0.06     0.00   0.04   0.05
     4   1    -0.01  -0.00   0.00    -0.00   0.52  -0.37    -0.00   0.51  -0.36
     5   1     0.38  -0.02  -0.29     0.22  -0.02  -0.14     0.22  -0.02  -0.15
     6   1     0.38   0.02   0.29    -0.22  -0.02  -0.14    -0.22  -0.02  -0.15
     7   1     0.23   0.00   0.17     0.00  -0.00   0.00    -0.08   0.00  -0.06
     8   1     0.23   0.00  -0.17     0.00  -0.00  -0.00     0.08  -0.00  -0.06
     9   1     0.38   0.02  -0.29    -0.22  -0.02   0.14     0.22   0.02  -0.15
    10   1    -0.01  -0.00  -0.00    -0.00   0.52   0.37     0.00  -0.51  -0.36
    11   1     0.38  -0.02   0.29     0.22  -0.02   0.14    -0.22   0.02  -0.15

 -------------------
 - Thermochemistry -
 -------------------
 Temperature  3000.000 Kelvin.  Pressure   0.98700 Atm.
 Atom     1 has atomic number  6 and mass  12.00000
 Atom     2 has atomic number  6 and mass  12.00000
 Atom     3 has atomic number  6 and mass  12.00000
 Atom     4 has atomic number  1 and mass   1.00783
 Atom     5 has atomic number  1 and mass   1.00783
 Atom     6 has atomic number  1 and mass   1.00783
 Atom     7 has atomic number  1 and mass   1.00783
 Atom     8 has atomic number  1 and mass   1.00783
 Atom     9 has atomic number  1 and mass   1.00783
 Atom    10 has atomic number  1 and mass   1.00783
 Atom    11 has atomic number  1 and mass   1.00783
 Molecular mass:    44.06260 amu.
 Principal axes and moments of inertia in atomic units:
                           1         2         3
     Eigenvalues --    61.23587 215.76670 243.45711
           X            0.00000   0.00000   1.00000
           Y            1.00000   0.00000  -0.00000
           Z           -0.00000   1.00000  -0.00000
 This molecule is an asymmetric top.
 Rotational symmetry number  2.
 Rotational temperatures (Kelvin)      1.41443     0.40142     0.35577
 Rotational constants (GHZ):          29.47196     8.36432     7.41297
 Zero-point vibrational energy     272300.1 (Joules/Mol)
                                   65.08128 (Kcal/Mol)
 Warning -- explicit consideration of  27 degrees of freedom as
           vibrations may cause significant error
 Identified internal rotation modes:
   34   2
 Vibrational temperatures:    329.04   398.35   528.64  1085.51  1262.75
          (Kelvin)           1316.07  1346.49  1530.57  1702.24  1755.59
                             1903.44  1978.96  2044.30  2066.74  2164.81
                             2165.10  2176.67  2190.60  2199.38  4359.60
                             4361.77  4367.57  4398.55  4454.34  4469.52
                             4470.20  4473.55
 
 Zero-point correction=                           0.103714 (Hartree/Particle)
 Thermal correction to Energy=                    0.303084
 Thermal correction to Enthalpy=                  0.312584
 Thermal correction to Gibbs Free Energy=        -0.428862
 Sum of electronic and zero-point Energies=           -119.051646
 Sum of electronic and thermal Energies=              -118.852276
 Sum of electronic and thermal Enthalpies=            -118.842775
 Sum of electronic and thermal Free Energies=         -119.584221
 
                     E (Thermal)             CV                S
                      KCal/Mol        Cal/Mol-Kelvin    Cal/Mol-Kelvin
 Total                  190.188             56.039            155.088
 Corrected for 
 internal rot.          187.052             54.200            154.119
 Electronic               0.000              0.000              0.000
 Translational            8.942              2.981             48.771
 Rotational               8.942              2.981             28.195
 Vibrational            172.303             50.077             78.122
 Vibration     1          5.968              1.985              6.380
 Vibration     2          5.970              1.984              6.001
 Vibration     3          5.977              1.982              5.440
 Vibration     4          6.027              1.966              4.018
 Vibration     5          6.049              1.958              3.721
 Vibration     6          6.057              1.956              3.640
 Vibration     7          6.061              1.954              3.596
 Vibration     8          6.090              1.945              3.346
 Vibration     9          6.121              1.935              3.140
 Vibration    10          6.131              1.931              3.080
 Vibration    11          6.160              1.922              2.924
 Vibration    12          6.176              1.917              2.850
 Vibration    13          6.191              1.912              2.787
 Vibration    14          6.196              1.910              2.767
 Vibration    15          6.218              1.903              2.678
 Vibration    16          6.218              1.903              2.678
 Vibration    17          6.221              1.902              2.668
 Vibration    18          6.224              1.901              2.656
 Vibration    19          6.226              1.901              2.648
 Vibration    20          6.976              1.672              1.411
 Vibration    21          6.977              1.671              1.410
 Vibration    22          6.979              1.670              1.408
 Vibration    23          6.993              1.666              1.396
 Vibration    24          7.019              1.659              1.375
 Vibration    25          7.026              1.657              1.369
 Vibration    26          7.026              1.657              1.369
 Vibration    27          7.027              1.657              1.368
                       Q            Log10(Q)             Ln(Q)
 Total Bot       0.402350D+20         19.604604         45.141269
 Corrected for 
 Internal rot.   0.418019D+20         19.621197         45.179475
 Total V=0       0.221655D+25         24.345677         56.057994
 Corrected for 
 Internal rot.   0.230287D+25         24.362270         56.096200
 Vib (Bot)       0.331967D+05          4.521094         10.410204
 Vib (Bot)    1  0.911291D+01          0.959657          2.209692
 Vib (Bot)    2  0.752559D+01          0.876541          2.018310
 Vib (Bot)    3  0.566765D+01          0.753403          1.734775
 Vib (Bot)    4  0.274867D+01          0.439122          1.011117
 Vib (Bot)    5  0.235832D+01          0.372602          0.857948
 Vib (Bot)    6  0.226133D+01          0.354364          0.815953
 Vib (Bot)    7  0.220942D+01          0.344278          0.792730
 Vib (Bot)    8  0.193895D+01          0.287568          0.662149
 Vib (Bot)    9  0.173896D+01          0.240290          0.553289
 Vib (Bot)   10  0.168468D+01          0.226518          0.521578
 Vib (Bot)   11  0.154996D+01          0.190321          0.438231
 Vib (Bot)   12  0.148881D+01          0.172839          0.397976
 Vib (Bot)   13  0.143948D+01          0.158206          0.364283
 Vib (Bot)   14  0.142325D+01          0.153281          0.352942
 Vib (Bot)   15  0.135619D+01          0.132319          0.304676
 Vib (Bot)   16  0.135600D+01          0.132260          0.304539
 Vib (Bot)   17  0.134848D+01          0.129844          0.298976
 Vib (Bot)   18  0.133953D+01          0.126953          0.292321
 Vib (Bot)   19  0.133395D+01          0.125138          0.288141
 Vib (Bot)   20  0.631119D+00         -0.199889         -0.460261
 Vib (Bot)   21  0.630752D+00         -0.200142         -0.460843
 Vib (Bot)   22  0.629772D+00         -0.200817         -0.462398
 Vib (Bot)   23  0.624576D+00         -0.204415         -0.470682
 Vib (Bot)   24  0.615394D+00         -0.210847         -0.485493
 Vib (Bot)   25  0.612933D+00         -0.212587         -0.489500
 Vib (Bot)   26  0.612823D+00         -0.212665         -0.489679
 Vib (Bot)   27  0.612281D+00         -0.213049         -0.490563
 Vib (V=0)       0.182881D+10          9.262168         21.326929
 Vib (V=0)    1  0.962662D+01          0.983474          2.264532
 Vib (V=0)    2  0.804219D+01          0.905374          2.084701
 Vib (V=0)    3  0.618966D+01          0.791667          1.822881
 Vib (V=0)    4  0.329377D+01          0.517694          1.192034
 Vib (V=0)    5  0.291074D+01          0.464003          1.068406
 Vib (V=0)    6  0.281595D+01          0.449624          1.035299
 Vib (V=0)    7  0.276529D+01          0.441741          1.017145
 Vib (V=0)    8  0.250238D+01          0.398354          0.917244
 Vib (V=0)    9  0.230942D+01          0.363503          0.836996
 Vib (V=0)   10  0.225732D+01          0.353592          0.814177
 Vib (V=0)   11  0.212861D+01          0.328097          0.755471
 Vib (V=0)   12  0.207052D+01          0.316080          0.727802
 Vib (V=0)   13  0.202385D+01          0.306177          0.704999
 Vib (V=0)   14  0.200852D+01          0.302877          0.697399
 Vib (V=0)   15  0.194542D+01          0.289013          0.665478
 Vib (V=0)   16  0.194525D+01          0.288975          0.665389
 Vib (V=0)   17  0.193819D+01          0.287396          0.661755
 Vib (V=0)   18  0.192981D+01          0.285514          0.657420
 Vib (V=0)   19  0.192457D+01          0.284335          0.654705
 Vib (V=0)   20  0.130518D+01          0.115670          0.266339
 Vib (V=0)   21  0.130489D+01          0.115574          0.266119
 Vib (V=0)   22  0.130412D+01          0.115318          0.265530
 Vib (V=0)   23  0.130006D+01          0.113963          0.262410
 Vib (V=0)   24  0.129291D+01          0.111569          0.256897
 Vib (V=0)   25  0.129100D+01          0.110927          0.255420
 Vib (V=0)   26  0.129092D+01          0.110899          0.255354
 Vib (V=0)   27  0.129050D+01          0.110758          0.255029
 Electronic      0.100000D+01          0.000000          0.000000
 Translational   0.374074D+10          9.572958         22.042550
 Rotational      0.324005D+06          5.510552         12.688514
 ***** Axes restored to original set *****
 -------------------------------------------------------------------
 Center     Atomic                   Forces (Hartrees/Bohr)
 Number     Number              X              Y              Z
 -------------------------------------------------------------------
      1        6          -0.000212608   -0.000216525    0.000000000
      2        6          -0.000000000    0.000148767    0.000000000
      3        6           0.000212608   -0.000216525   -0.000000000
      4        1           0.000040947   -0.000015774    0.000000000
      5        1           0.000033594    0.000105381   -0.000124717
      6        1           0.000033594    0.000105381    0.000124717
      7        1           0.000000000   -0.000052847   -0.000011457
      8        1           0.000000000   -0.000052847    0.000011457
      9        1          -0.000033594    0.000105381   -0.000124717
     10        1          -0.000040947   -0.000015774   -0.000000000
     11        1          -0.000033594    0.000105381    0.000124717
 -------------------------------------------------------------------
 Cartesian Forces:  Max     0.000216525 RMS     0.000099568
 FormGI is forming the generalized inverse of G from B-inverse, IUseBI=4.

 ----------------------------------------------------------------------

 Electric dipole moment (input orientation):
 (Debye = 10**-18 statcoulomb cm , SI units = C m)
                  (au)            (Debye)         (10**-30 SI)
   Tot        0.195876D-01      0.497867D-01      0.166071D+00
   x          0.000000D+00      0.000000D+00      0.000000D+00
   y          0.195876D-01      0.497867D-01      0.166071D+00
   z          0.000000D+00      0.000000D+00      0.000000D+00

 Dipole polarizability, Alpha (input orientation).
 (esu units = cm**3 , SI units = C**2 m**2 J**-1)
 Alpha(0;0):
               (au)            (10**-24 esu)      (10**-40 SI)
   iso        0.340563D+02      0.504662D+01      0.561512D+01
   aniso      0.423186D+01      0.627097D+00      0.697739D+00
   xx         0.368381D+02      0.545885D+01      0.607379D+01
   yx         0.000000D+00      0.000000D+00      0.000000D+00
   yy         0.330721D+02      0.490079D+01      0.545286D+01
   zx         0.000000D+00      0.000000D+00      0.000000D+00
   zy         0.000000D+00      0.000000D+00      0.000000D+00
   zz         0.322585D+02      0.478022D+01      0.531871D+01

 ----------------------------------------------------------------------

 Dipole orientation:
     6         -2.41305476         -0.00000039         -0.50864941
     6         -0.00000024         -0.00000000          1.08884912
     6          2.41305428          0.00000039         -0.50864941
     1         -4.11011870         -0.00000067          0.67556668
     1         -2.49999228         -1.66994631         -1.73189382
     1         -2.49999283          1.66994550         -1.73189382
     1          0.00000003         -1.65644531          2.33768633
     1         -0.00000051          1.65644531          2.33768633
     1          2.49999235         -1.66994550         -1.73189382
     1          4.11011823          0.00000067          0.67556668
     1          2.49999181          1.66994631         -1.73189382

 Electric dipole moment (dipole orientation):
 (Debye = 10**-18 statcoulomb cm , SI units = C m)
                  (au)            (Debye)         (10**-30 SI)
   Tot        0.195876D-01      0.497867D-01      0.166071D+00
   x          0.000000D+00      0.000000D+00      0.000000D+00
   y          0.000000D+00      0.000000D+00      0.000000D+00
   z          0.195876D-01      0.497867D-01      0.166071D+00

 Dipole polarizability, Alpha (dipole orientation).
 (esu units = cm**3 , SI units = C**2 m**2 J**-1)
 Alpha(0;0):
               (au)            (10**-24 esu)      (10**-40 SI)
   iso        0.340563D+02      0.504662D+01      0.561512D+01
   aniso      0.423186D+01      0.627097D+00      0.697739D+00
   xx         0.368381D+02      0.545885D+01      0.607379D+01
   yx         0.000000D+00      0.000000D+00      0.000000D+00
   yy         0.322585D+02      0.478022D+01      0.531871D+01
   zx         0.000000D+00      0.000000D+00      0.000000D+00
   zy         0.000000D+00      0.000000D+00      0.000000D+00
   zz         0.330721D+02      0.490079D+01      0.545286D+01

 ----------------------------------------------------------------------

 This type of calculation cannot be archived.


            ARSENIC

 FOR SMELTER FUMES HAVE I BEEN NAMED,
    I AM AN EVIL POISONOUS SMOKE...
 BUT WHEN FROM POISON I AM FREED,
    THROUGH ART AND SLEIGHT OF HAND,
 THEN CAN I CURE BOTH MAN AND BEAST,
    FROM DIRE DISEASE OFTTIMES DIRECT THEM;
 BUT PREPARE ME CORRECTLY, AND TAKE GREAT CARE
    THAT YOU FAITHFULLY KEEP WATCHFUL GUARD OVER ME;
 FOR ELSE I AM POISON, AND POISON REMAIN,
    THAT PIERCES THE HEART OF MANY A ONE.

 ATTRIBUTED TO THE PROBABLY MYTHICAL 15TH
 CENTURY MONK, BASILIUS VALENTINUS
 Job cpu time:       0 days  0 hours  0 minutes  0.4 seconds.
 Elapsed time:       0 days  0 hours  0 minutes  0.4 seconds.
 File lengths (MBytes):  RWF=      6 Int=      0 D2E=      0 Chk=      2 Scr=      1
 Normal termination of Gaussian 16 at Tue May  3 12:03:26 2022.
