 Entering Gaussian System, Link 0=g16
 Initial command:
 /software//g16/l1.exe "/home/tmp/g16/Gau-2306144.inp" -scrdir="/home/tmp/g16/"
 Entering Link 1 = /software//g16/l1.exe PID=   2306145.
  
 Copyright (c) 1988-2019, Gaussian, Inc.  All Rights Reserved.
  
 This is part of the Gaussian(R) 16 program.  It is based on
 the Gaussian(R) 09 system (copyright 2009, Gaussian, Inc.),
 the Gaussian(R) 03 system (copyright 2003, Gaussian, Inc.),
 the Gaussian(R) 98 system (copyright 1998, Gaussian, Inc.),
 the Gaussian(R) 94 system (copyright 1995, Gaussian, Inc.),
 the Gaussian 92(TM) system (copyright 1992, Gaussian, Inc.),
 the Gaussian 90(TM) system (copyright 1990, Gaussian, Inc.),
 the Gaussian 88(TM) system (copyright 1988, Gaussian, Inc.),
 the Gaussian 86(TM) system (copyright 1986, Carnegie Mellon
 University), and the Gaussian 82(TM) system (copyright 1983,
 Carnegie Mellon University). Gaussian is a federally registered
 trademark of Gaussian, Inc.
  
 This software contains proprietary and confidential information,
 including trade secrets, belonging to Gaussian, Inc.
  
 This software is provided under written license and may be
 used, copied, transmitted, or stored only in accord with that
 written license.
  
 The following legend is applicable only to US Government
 contracts under FAR:
  
                    RESTRICTED RIGHTS LEGEND
  
 Use, reproduction and disclosure by the US Government is
 subject to restrictions as set forth in subparagraphs (a)
 and (c) of the Commercial Computer Software - Restricted
 Rights clause in FAR 52.227-19.
  
 Gaussian, Inc.
 340 Quinnipiac St., Bldg. 40, Wallingford CT 06492
  
  
 ---------------------------------------------------------------
 Warning -- This program may not be used in any manner that
 competes with the business of Gaussian, Inc. or will provide
 assistance to any competitor of Gaussian, Inc.  The licensee
 of this program is prohibited from giving any competitor of
 Gaussian, Inc. access to this program.  By using this program,
 the user acknowledges that Gaussian, Inc. is engaged in the
 business of creating and licensing software in the field of
 computational chemistry and represents and warrants to the
 licensee that it is not a competitor of Gaussian, Inc. and that
 it will not use this program in any manner prohibited above.
 ---------------------------------------------------------------
  

 Cite this work as:
 Gaussian 16, Revision C.01,
 M. J. Frisch, G. W. Trucks, H. B. Schlegel, G. E. Scuseria, 
 M. A. Robb, J. R. Cheeseman, G. Scalmani, V. Barone, 
 G. A. Petersson, H. Nakatsuji, X. Li, M. Caricato, A. V. Marenich, 
 J. Bloino, B. G. Janesko, R. Gomperts, B. Mennucci, H. P. Hratchian, 
 J. V. Ortiz, A. F. Izmaylov, J. L. Sonnenberg, D. Williams-Young, 
 F. Ding, F. Lipparini, F. Egidi, J. Goings, B. Peng, A. Petrone, 
 T. Henderson, D. Ranasinghe, V. G. Zakrzewski, J. Gao, N. Rega, 
 G. Zheng, W. Liang, M. Hada, M. Ehara, K. Toyota, R. Fukuda, 
 J. Hasegawa, M. Ishida, T. Nakajima, Y. Honda, O. Kitao, H. Nakai, 
 T. Vreven, K. Throssell, J. A. Montgomery, Jr., J. E. Peralta, 
 F. Ogliaro, M. J. Bearpark, J. J. Heyd, E. N. Brothers, K. N. Kudin, 
 V. N. Staroverov, T. A. Keith, R. Kobayashi, J. Normand, 
 K. Raghavachari, A. P. Rendell, J. C. Burant, S. S. Iyengar, 
 J. Tomasi, M. Cossi, J. M. Millam, M. Klene, C. Adamo, R. Cammi, 
 J. W. Ochterski, R. L. Martin, K. Morokuma, O. Farkas, 
 J. B. Foresman, and D. J. Fox, Gaussian, Inc., Wallingford CT, 2019.
 
 ******************************************
 Gaussian 16:  ES64L-G16RevC.01  3-Jul-2019
                 3-May-2022 
 ******************************************
 %nprocshared=8
 Will use up to    8 processors via shared memory.
 %chk=CCCC.chk
 ----------------------------------------------------------------------
 # opt freq=hinderedrotor B3LYP/6-31g(d,p) scf=fermi symm=veryloose pre
 ss=0.987
 ----------------------------------------------------------------------
 1/18=20,19=15,26=3,38=1,113=-987000/1,3;
 2/9=110,12=2,17=2,18=2,40=1/2;
 3/5=1,6=6,7=101,11=2,25=1,30=1,71=1,74=-5/1,2,3;
 4//1;
 5/5=2,22=13,38=5/2;
 6/7=2,8=2,9=2,10=2,28=1/1;
 7//1,2,3,16;
 1/18=20,19=15,26=3/3(2);
 2/9=110/2;
 99//99;
 2/9=110/2;
 3/5=1,6=6,7=101,11=2,25=1,30=1,71=1,74=-5/1,2,3;
 4/5=5,16=3,69=1/1;
 5/5=2,22=13,38=5/2;
 7//1,2,3,16;
 1/18=20,19=15,26=3/3(-5);
 2/9=110/2;
 6/7=2,8=2,9=2,10=2,19=2,28=1/1;
 99/9=1/99;
 ------
 CCCC_1
 ------
 Symbolic Z-matrix:
 Charge =  0 Multiplicity = 1
 C                     1.94505   0.13112  0. 
 C                     0.56749  -0.51327   0. 
 C                    -0.56749   0.51327   0. 
 C                    -1.94505  -0.13112  0. 
 H                     2.74669  -0.61164  0. 
 H                     2.08514   0.76469   0.87841 
 H                     2.08514   0.76469  -0.87841 
 H                     0.45876  -1.17391   0.87095 
 H                     0.45876  -1.17391  -0.87095 
 H                    -0.45876   1.17391  -0.87096 
 H                    -0.45876   1.17391   0.87096 
 H                    -2.08514  -0.76468  -0.87841 
 H                    -2.74669   0.61164   0. 
 H                    -2.08514  -0.76468   0.87841 
 

 GradGradGradGradGradGradGradGradGradGradGradGradGradGradGradGradGradGrad
 Berny optimization.
 Initialization pass.
                           ----------------------------
                           !    Initial Parameters    !
                           ! (Angstroms and Degrees)  !
 --------------------------                            --------------------------
 ! Name  Definition              Value          Derivative Info.                !
 --------------------------------------------------------------------------------
 ! R1    R(1,2)                  1.5208         estimate D2E/DX2                !
 ! R2    R(1,5)                  1.0928         estimate D2E/DX2                !
 ! R3    R(1,6)                  1.0921         estimate D2E/DX2                !
 ! R4    R(1,7)                  1.0921         estimate D2E/DX2                !
 ! R5    R(2,3)                  1.5303         estimate D2E/DX2                !
 ! R6    R(2,8)                  1.0986         estimate D2E/DX2                !
 ! R7    R(2,9)                  1.0986         estimate D2E/DX2                !
 ! R8    R(3,4)                  1.5208         estimate D2E/DX2                !
 ! R9    R(3,10)                 1.0986         estimate D2E/DX2                !
 ! R10   R(3,11)                 1.0986         estimate D2E/DX2                !
 ! R11   R(4,12)                 1.0921         estimate D2E/DX2                !
 ! R12   R(4,13)                 1.0928         estimate D2E/DX2                !
 ! R13   R(4,14)                 1.0921         estimate D2E/DX2                !
 ! A1    A(2,1,5)              112.1147         estimate D2E/DX2                !
 ! A2    A(2,1,6)              111.2237         estimate D2E/DX2                !
 ! A3    A(2,1,7)              111.2237         estimate D2E/DX2                !
 ! A4    A(5,1,6)              107.4697         estimate D2E/DX2                !
 ! A5    A(5,1,7)              107.4697         estimate D2E/DX2                !
 ! A6    A(6,1,7)              107.094          estimate D2E/DX2                !
 ! A7    A(1,2,3)              112.8033         estimate D2E/DX2                !
 ! A8    A(1,2,8)              110.1489         estimate D2E/DX2                !
 ! A9    A(1,2,9)              110.1489         estimate D2E/DX2                !
 ! A10   A(3,2,8)              109.2679         estimate D2E/DX2                !
 ! A11   A(3,2,9)              109.2679         estimate D2E/DX2                !
 ! A12   A(8,2,9)              104.8985         estimate D2E/DX2                !
 ! A13   A(2,3,4)              112.8032         estimate D2E/DX2                !
 ! A14   A(2,3,10)             109.2677         estimate D2E/DX2                !
 ! A15   A(2,3,11)             109.2677         estimate D2E/DX2                !
 ! A16   A(4,3,10)             110.1488         estimate D2E/DX2                !
 ! A17   A(4,3,11)             110.1488         estimate D2E/DX2                !
 ! A18   A(10,3,11)            104.8995         estimate D2E/DX2                !
 ! A19   A(3,4,12)             111.2237         estimate D2E/DX2                !
 ! A20   A(3,4,13)             112.1143         estimate D2E/DX2                !
 ! A21   A(3,4,14)             111.2237         estimate D2E/DX2                !
 ! A22   A(12,4,13)            107.4697         estimate D2E/DX2                !
 ! A23   A(12,4,14)            107.0944         estimate D2E/DX2                !
 ! A24   A(13,4,14)            107.4697         estimate D2E/DX2                !
 ! D1    D(5,1,2,3)            180.0            estimate D2E/DX2                !
 ! D2    D(5,1,2,8)             57.618          estimate D2E/DX2                !
 ! D3    D(5,1,2,9)            -57.618          estimate D2E/DX2                !
 ! D4    D(6,1,2,3)             59.6403         estimate D2E/DX2                !
 ! D5    D(6,1,2,8)            -62.7417         estimate D2E/DX2                !
 ! D6    D(6,1,2,9)           -177.9777         estimate D2E/DX2                !
 ! D7    D(7,1,2,3)            -59.6403         estimate D2E/DX2                !
 ! D8    D(7,1,2,8)            177.9777         estimate D2E/DX2                !
 ! D9    D(7,1,2,9)             62.7417         estimate D2E/DX2                !
 ! D10   D(1,2,3,4)            180.0            estimate D2E/DX2                !
 ! D11   D(1,2,3,10)            57.1255         estimate D2E/DX2                !
 ! D12   D(1,2,3,11)           -57.1255         estimate D2E/DX2                !
 ! D13   D(8,2,3,4)            -57.1251         estimate D2E/DX2                !
 ! D14   D(8,2,3,10)          -179.9996         estimate D2E/DX2                !
 ! D15   D(8,2,3,11)            65.7494         estimate D2E/DX2                !
 ! D16   D(9,2,3,4)             57.1251         estimate D2E/DX2                !
 ! D17   D(9,2,3,10)           -65.7494         estimate D2E/DX2                !
 ! D18   D(9,2,3,11)           179.9996         estimate D2E/DX2                !
 ! D19   D(2,3,4,12)           -59.6405         estimate D2E/DX2                !
 ! D20   D(2,3,4,13)           180.0            estimate D2E/DX2                !
 ! D21   D(2,3,4,14)            59.6405         estimate D2E/DX2                !
 ! D22   D(10,3,4,12)           62.7409         estimate D2E/DX2                !
 ! D23   D(10,3,4,13)          -57.6185         estimate D2E/DX2                !
 ! D24   D(10,3,4,14)         -177.978          estimate D2E/DX2                !
 ! D25   D(11,3,4,12)          177.978          estimate D2E/DX2                !
 ! D26   D(11,3,4,13)           57.6185         estimate D2E/DX2                !
 ! D27   D(11,3,4,14)          -62.7409         estimate D2E/DX2                !
 --------------------------------------------------------------------------------
 Trust Radius=3.00D-01 FncErr=1.00D-07 GrdErr=1.00D-06 EigMax=2.50D+02 EigMin=1.00D-04
 Number of steps in this run=     74 maximum allowed number of steps=    100.
 GradGradGradGradGradGradGradGradGradGradGradGradGradGradGradGradGradGrad

                          Input orientation:                          
 ---------------------------------------------------------------------
 Center     Atomic      Atomic             Coordinates (Angstroms)
 Number     Number       Type             X           Y           Z
 ---------------------------------------------------------------------
      1          6           0        1.945051    0.131118   -0.000000
      2          6           0        0.567491   -0.513267    0.000000
      3          6           0       -0.567490    0.513269    0.000000
      4          6           0       -1.945051   -0.131119   -0.000000
      5          1           0        2.746691   -0.611635   -0.000000
      6          1           0        2.085141    0.764686    0.878405
      7          1           0        2.085141    0.764686   -0.878405
      8          1           0        0.458757   -1.173911    0.870953
      9          1           0        0.458757   -1.173911   -0.870953
     10          1           0       -0.458757    1.173905   -0.870958
     11          1           0       -0.458757    1.173905    0.870958
     12          1           0       -2.085143   -0.764684   -0.878407
     13          1           0       -2.746687    0.611638    0.000000
     14          1           0       -2.085143   -0.764684    0.878407
 ---------------------------------------------------------------------
                    Distance matrix (angstroms):
                    1          2          3          4          5
     1  C    0.000000
     2  C    1.520823   0.000000
     3  C    2.541437   1.530346   0.000000
     4  C    3.898931   2.541437   1.520825   0.000000
     5  H    1.092845   2.181420   3.499887   4.716285   0.000000
     6  H    1.092076   2.169798   2.805577   4.220961   1.761676
     7  H    1.092076   2.169798   2.805577   4.220961   1.761676
     8  H    2.161187   1.098559   2.158314   2.761207   2.511843
     9  H    2.161187   1.098559   2.158314   2.761207   2.511843
    10  H    2.761207   2.158310   1.098559   2.161186   3.771157
    11  H    2.761207   2.158310   1.098559   2.161186   3.771157
    12  H    4.220962   2.805579   2.169800   1.092076   4.913415
    13  H    4.716281   3.499884   2.181416   1.092845   5.627931
    14  H    4.220962   2.805579   2.169800   1.092076   4.913415
                    6          7          8          9         10
     6  H    0.000000
     7  H    1.756811   0.000000
     8  H    2.530482   3.076287   0.000000
     9  H    3.076287   2.530482   1.741905   0.000000
    10  H    3.114346   2.576613   3.064038   2.520729   0.000000
    11  H    2.576613   3.114346   2.520729   3.064038   1.741916
    12  H    4.776676   4.441874   3.114347   2.576616   2.530477
    13  H    4.913409   4.913409   3.771156   3.771156   2.511839
    14  H    4.441874   4.776676   2.576616   3.114347   3.076286
                   11         12         13         14
    11  H    0.000000
    12  H    3.076286   0.000000
    13  H    2.511839   1.761676   0.000000
    14  H    2.530477   1.756814   1.761676   0.000000
 Stoichiometry    C4H10
 Framework group  C2H[SGH(C4H2),X(H8)]
 Deg. of freedom    11
 Full point group                 C2H     NOp   4
 Largest Abelian subgroup         C2H     NOp   4
 Largest concise Abelian subgroup C2H     NOp   4
                         Standard orientation:                         
 ---------------------------------------------------------------------
 Center     Atomic      Atomic             Coordinates (Angstroms)
 Number     Number       Type             X           Y           Z
 ---------------------------------------------------------------------
      1          6           0       -1.401957    1.354596    0.000000
      2          6           0        0.000000    0.765172    0.000000
      3          6           0       -0.000000   -0.765172    0.000000
      4          6           0        1.401957   -1.354596    0.000000
      5          1           0       -1.388823    2.447362    0.000000
      6          1           0       -1.965814    1.033506    0.878405
      7          1           0       -1.965814    1.033506   -0.878405
      8          1           0        0.562904    1.127681    0.870953
      9          1           0        0.562904    1.127681   -0.870953
     10          1           0       -0.562904   -1.127681   -0.870953
     11          1           0       -0.562904   -1.127681    0.870953
     12          1           0        1.965814   -1.033506   -0.878405
     13          1           0        1.388823   -2.447362    0.000000
     14          1           0        1.965814   -1.033506    0.878405
 ---------------------------------------------------------------------
 Rotational constants (GHZ):          23.4291870           3.6548198           3.4260459
 Standard basis: 6-31G(d,p) (6D, 7F)
 There are    36 symmetry adapted cartesian basis functions of AG  symmetry.
 There are    19 symmetry adapted cartesian basis functions of BG  symmetry.
 There are    19 symmetry adapted cartesian basis functions of AU  symmetry.
 There are    36 symmetry adapted cartesian basis functions of BU  symmetry.
 There are    36 symmetry adapted basis functions of AG  symmetry.
 There are    19 symmetry adapted basis functions of BG  symmetry.
 There are    19 symmetry adapted basis functions of AU  symmetry.
 There are    36 symmetry adapted basis functions of BU  symmetry.
   110 basis functions,   182 primitive gaussians,   110 cartesian basis functions
    17 alpha electrons       17 beta electrons
       nuclear repulsion energy       130.7921655435 Hartrees.
 NAtoms=   14 NActive=   14 NUniq=    5 SFac= 4.00D+00 NAtFMM=   60 NAOKFM=F Big=F
 Integral buffers will be    131072 words long.
 Raffenetti 2 integral format.
 Two-electron integral symmetry is turned on.
 One-electron integrals computed using PRISM.
 NBasis=   110 RedAO= T EigKep=  4.41D-03  NBF=    36    19    19    36
 NBsUse=   110 1.00D-06 EigRej= -1.00D+00 NBFU=    36    19    19    36
 ExpMin= 1.61D-01 ExpMax= 3.05D+03 ExpMxC= 4.57D+02 IAcc=3 IRadAn=         5 AccDes= 0.00D+00
 Harris functional with IExCor=  402 and IRadAn=       5 diagonalized for initial guess.
 HarFok:  IExCor=  402 AccDes= 0.00D+00 IRadAn=         5 IDoV= 1 UseB2=F ITyADJ=14
 ICtDFT=  3500011 ScaDFX=  1.000000  1.000000  1.000000  1.000000
 FoFCou: FMM=F IPFlag=           0 FMFlag=      100000 FMFlg1=           0
         NFxFlg=           0 DoJE=T BraDBF=F KetDBF=T FulRan=T
         wScrn=  0.000000 ICntrl=       500 IOpCl=  0 I1Cent=   200000004 NGrid=           0
         NMat0=    1 NMatS0=      1 NMatT0=    0 NMatD0=    1 NMtDS0=    0 NMtDT0=    0
 Petite list used in FoFCou.
 Initial guess orbital symmetries:
       Occupied  (BU) (AG) (AG) (BU) (AG) (BU) (AG) (BU) (AU) (AG)
                 (BU) (BG) (BU) (AG) (AU) (AG) (BG)
       Virtual   (AG) (BU) (AU) (BU) (AG) (BU) (BG) (BU) (AG) (AU)
                 (BG) (BU) (AG) (BU) (AG) (AG) (AU) (BG) (BU) (AG)
                 (AU) (BU) (BU) (BG) (AG) (AU) (AG) (BU) (BG) (AG)
                 (AU) (BU) (BU) (AG) (BG) (AG) (AU) (BU) (BU) (AG)
                 (AG) (BU) (BG) (AU) (BG) (BU) (AG) (AG) (BU) (AG)
                 (BG) (AU) (BG) (AU) (BU) (AU) (BG) (AG) (BU) (AU)
                 (BG) (AU) (AG) (BU) (BG) (AG) (AU) (BU) (BU) (AG)
                 (BU) (AG) (BG) (BU) (AG) (AU) (AG) (BG) (BU) (AG)
                 (BU) (AG) (BG) (BU) (AU) (AG) (BU) (BG) (AU) (AG)
                 (BU) (AG) (BU)
 The electronic state of the initial guess is 1-AG.
 Keep R1 ints in memory in symmetry-blocked form, NReq=26135451.
 Requested convergence on RMS density matrix=1.00D-08 within 128 cycles.
 Requested convergence on MAX density matrix=1.00D-06.
 Requested convergence on             energy=1.00D-06.
 Level shift goal  0.100 maximum shift  0.100.
 No special actions if energy rises.
 Dynamic level shift is on during FON iterations.
 Integral accuracy reduced to 1.0D-05 until final iterations.
 Initial convergence to 1.0D-05 achieved.  Increase integral accuracy.
 SCF Done:  E(RB3LYP) =  -158.471684536     A.U. after   11 cycles
            NFock= 11  Conv=0.28D-08     -V/T= 2.0101

 **********************************************************************

            Population analysis using the SCF Density.

 **********************************************************************

 Orbital symmetries:
       Occupied  (AG) (BU) (BU) (AG) (AG) (BU) (AG) (BU) (AU) (AG)
                 (BU) (BG) (BU) (AU) (AG) (AG) (BG)
       Virtual   (AG) (BU) (AU) (BU) (AG) (BU) (AG) (BG) (BG) (AU)
                 (BU) (AG) (BU) (BU) (AG) (AG) (BG) (AU) (BU) (AU)
                 (AG) (BU) (BU) (BG) (AG) (AU) (AG) (BU) (BG) (AG)
                 (AU) (BU) (BU) (AG) (BG) (AG) (AU) (BU) (BU) (AG)
                 (AG) (BU) (BG) (AU) (BG) (BU) (AG) (AG) (BU) (AG)
                 (BG) (AU) (BG) (AU) (BU) (AU) (BG) (AG) (AU) (BU)
                 (BG) (AU) (AG) (BG) (BU) (AG) (BU) (AU) (BU) (AG)
                 (AG) (BU) (BG) (BU) (AG) (AU) (AG) (BG) (BU) (AG)
                 (BU) (AG) (BG) (BU) (AU) (AG) (BU) (BG) (AU) (AG)
                 (BU) (AG) (BU)
 The electronic state is 1-AG.
 Alpha  occ. eigenvalues --  -10.17512 -10.17491 -10.16850 -10.16849  -0.79013
 Alpha  occ. eigenvalues --   -0.72032  -0.62604  -0.57283  -0.46233  -0.42184
 Alpha  occ. eigenvalues --   -0.41592  -0.40569  -0.36457  -0.34451  -0.33220
 Alpha  occ. eigenvalues --   -0.31728  -0.31672
 Alpha virt. eigenvalues --    0.09565   0.12190   0.13504   0.14508   0.17194
 Alpha virt. eigenvalues --    0.18475   0.18642   0.18911   0.19843   0.20004
 Alpha virt. eigenvalues --    0.25184   0.25971   0.26344   0.49630   0.49897
 Alpha virt. eigenvalues --    0.54492   0.54736   0.55015   0.61463   0.63529
 Alpha virt. eigenvalues --    0.65745   0.69325   0.75846   0.76182   0.83704
 Alpha virt. eigenvalues --    0.84297   0.87576   0.88770   0.89787   0.90315
 Alpha virt. eigenvalues --    0.90657   0.92964   0.94939   0.96854   0.98516
 Alpha virt. eigenvalues --    1.01462   1.29633   1.30405   1.36175   1.44331
 Alpha virt. eigenvalues --    1.45973   1.59984   1.63310   1.69876   1.70350
 Alpha virt. eigenvalues --    1.75856   1.82758   1.88255   1.91984   1.99359
 Alpha virt. eigenvalues --    2.05656   2.05763   2.07262   2.07856   2.10520
 Alpha virt. eigenvalues --    2.11897   2.12843   2.14554   2.23971   2.25559
 Alpha virt. eigenvalues --    2.28618   2.30407   2.33926   2.41413   2.41810
 Alpha virt. eigenvalues --    2.50593   2.55358   2.55642   2.67216   2.73720
 Alpha virt. eigenvalues --    2.75907   2.76223   2.77576   2.82529   2.87517
 Alpha virt. eigenvalues --    2.88769   2.91249   2.91727   2.95962   3.17608
 Alpha virt. eigenvalues --    3.21606   3.29329   3.32725   3.33384   3.44368
 Alpha virt. eigenvalues --    3.47245   3.49481   3.54999   3.58923   4.28115
 Alpha virt. eigenvalues --    4.43232   4.55614   4.69637
          Condensed to atoms (all electrons):
               1          2          3          4          5          6
     1  C    4.912140   0.373641  -0.043777   0.004280   0.378788   0.387324
     2  C    0.373641   4.856404   0.393363  -0.043777  -0.026637  -0.035593
     3  C   -0.043777   0.393363   4.856404   0.373641   0.004368  -0.005364
     4  C    0.004280  -0.043777   0.373641   4.912140  -0.000181   0.000072
     5  H    0.378788  -0.026637   0.004368  -0.000181   0.616734  -0.032552
     6  H    0.387324  -0.035593  -0.005364   0.000072  -0.032552   0.613821
     7  H    0.387324  -0.035593  -0.005364   0.000072  -0.032552  -0.034537
     8  H   -0.037744   0.385574  -0.041069  -0.003439  -0.003155  -0.005223
     9  H   -0.037744   0.385574  -0.041069  -0.003439  -0.003155   0.005635
    10  H   -0.003439  -0.041069   0.385574  -0.037744  -0.000025  -0.000547
    11  H   -0.003439  -0.041069   0.385574  -0.037744  -0.000025   0.005260
    12  H    0.000072  -0.005364  -0.035593   0.387324   0.000001   0.000008
    13  H   -0.000181   0.004368  -0.026637   0.378788   0.000002   0.000001
    14  H    0.000072  -0.005364  -0.035593   0.387324   0.000001  -0.000001
               7          8          9         10         11         12
     1  C    0.387324  -0.037744  -0.037744  -0.003439  -0.003439   0.000072
     2  C   -0.035593   0.385574   0.385574  -0.041069  -0.041069  -0.005364
     3  C   -0.005364  -0.041069  -0.041069   0.385574   0.385574  -0.035593
     4  C    0.000072  -0.003439  -0.003439  -0.037744  -0.037744   0.387324
     5  H   -0.032552  -0.003155  -0.003155  -0.000025  -0.000025   0.000001
     6  H   -0.034537  -0.005223   0.005635  -0.000547   0.005260   0.000008
     7  H    0.613821   0.005635  -0.005223   0.005260  -0.000547  -0.000001
     8  H    0.005635   0.647525  -0.042796   0.006336  -0.006330  -0.000547
     9  H   -0.005223  -0.042796   0.647525  -0.006330   0.006336   0.005260
    10  H    0.005260   0.006336  -0.006330   0.647525  -0.042796  -0.005223
    11  H   -0.000547  -0.006330   0.006336  -0.042796   0.647525   0.005635
    12  H   -0.000001  -0.000547   0.005260  -0.005223   0.005635   0.613821
    13  H    0.000001  -0.000025  -0.000025  -0.003155  -0.003155  -0.032552
    14  H    0.000008   0.005260  -0.000547   0.005635  -0.005223  -0.034537
              13         14
     1  C   -0.000181   0.000072
     2  C    0.004368  -0.005364
     3  C   -0.026637  -0.035593
     4  C    0.378788   0.387324
     5  H    0.000002   0.000001
     6  H    0.000001  -0.000001
     7  H    0.000001   0.000008
     8  H   -0.000025   0.005260
     9  H   -0.000025  -0.000547
    10  H   -0.003155   0.005635
    11  H   -0.003155  -0.005223
    12  H   -0.032552  -0.034537
    13  H    0.616734  -0.032552
    14  H   -0.032552   0.613821
 Mulliken charges:
               1
     1  C   -0.317314
     2  C   -0.164459
     3  C   -0.164459
     4  C   -0.317314
     5  H    0.098388
     6  H    0.101694
     7  H    0.101694
     8  H    0.089998
     9  H    0.089998
    10  H    0.089998
    11  H    0.089998
    12  H    0.101694
    13  H    0.098388
    14  H    0.101694
 Sum of Mulliken charges =  -0.00000
 Mulliken charges with hydrogens summed into heavy atoms:
               1
     1  C   -0.015537
     2  C    0.015537
     3  C    0.015537
     4  C   -0.015537
 Electronic spatial extent (au):  <R**2>=            422.4351
 Charge=             -0.0000 electrons
 Dipole moment (field-independent basis, Debye):
    X=             -0.0000    Y=              0.0000    Z=              0.0000  Tot=              0.0000
 Quadrupole moment (field-independent basis, Debye-Ang):
   XX=            -28.5580   YY=            -28.2492   ZZ=            -27.8312
   XY=              0.2651   XZ=             -0.0000   YZ=              0.0000
 Traceless Quadrupole moment (field-independent basis, Debye-Ang):
   XX=             -0.3452   YY=             -0.0364   ZZ=              0.3816
   XY=              0.2651   XZ=             -0.0000   YZ=              0.0000
 Octapole moment (field-independent basis, Debye-Ang**2):
  XXX=              0.0000  YYY=             -0.0000  ZZZ=              0.0000  XYY=             -0.0000
  XXY=             -0.0000  XXZ=              0.0000  XZZ=              0.0000  YZZ=             -0.0000
  YYZ=              0.0000  XYZ=             -0.0000
 Hexadecapole moment (field-independent basis, Debye-Ang**3):
 XXXX=           -252.6359 YYYY=           -271.6034 ZZZZ=            -56.4868 XXXY=             90.9205
 XXXZ=             -0.0000 YYYX=             86.9113 YYYZ=              0.0000 ZZZX=              0.0000
 ZZZY=             -0.0000 XXYY=            -90.3641 XXZZ=            -48.1762 YYZZ=            -56.9189
 XXYZ=              0.0000 YYXZ=             -0.0000 ZZXY=             30.0792
 N-N= 1.307921655435D+02 E-N=-6.270376558169D+02  KE= 1.568890493032D+02
 Symmetry AG   KE= 7.600072737406D+01
 Symmetry BG   KE= 4.001066334466D+00
 Symmetry AU   KE= 3.828375186287D+00
 Symmetry BU   KE= 7.305888040844D+01
 Calling FoFJK, ICntrl=      2127 FMM=F ISym2X=1 I1Cent= 0 IOpClX= 0 NMat=1 NMatS=1 NMatT=0.
 ***** Axes restored to original set *****
 -------------------------------------------------------------------
 Center     Atomic                   Forces (Hartrees/Bohr)
 Number     Number              X              Y              Z
 -------------------------------------------------------------------
      1        6           0.004034431   -0.000249527   -0.000000000
      2        6          -0.002791124   -0.002804254   -0.000000000
      3        6           0.002791124    0.002804254   -0.000000000
      4        6          -0.004034431    0.000249527   -0.000000000
      5        1           0.000815856   -0.001313156    0.000000000
      6        1           0.000234209    0.001352363    0.002416580
      7        1           0.000234209    0.001352363   -0.002416580
      8        1           0.000433563    0.000917921    0.001226377
      9        1           0.000433563    0.000917921   -0.001226377
     10        1          -0.000433563   -0.000917921   -0.001226377
     11        1          -0.000433563   -0.000917921    0.001226377
     12        1          -0.000234209   -0.001352363   -0.002416580
     13        1          -0.000815856    0.001313156   -0.000000000
     14        1          -0.000234209   -0.001352363    0.002416580
 -------------------------------------------------------------------
 Cartesian Forces:  Max     0.004034431 RMS     0.001616867

 GradGradGradGradGradGradGradGradGradGradGradGradGradGradGradGradGradGrad
 Berny optimization.
 FormGI is forming the generalized inverse of G from B-inverse, IUseBI=4.
 Internal  Forces:  Max     0.005302063 RMS     0.001424545
 Search for a local minimum.
 Step number   1 out of a maximum of   74
 All quantities printed in internal units (Hartrees-Bohrs-Radians)
 Mixed Optimization -- RFO/linear search
 Second derivative matrix not updated -- first step.
 ITU=  0
     Eigenvalues ---    0.00365   0.00490   0.00490   0.03501   0.03501
     Eigenvalues ---    0.04829   0.04829   0.05451   0.05451   0.05572
     Eigenvalues ---    0.05572   0.08459   0.08459   0.12287   0.12287
     Eigenvalues ---    0.16000   0.16000   0.16000   0.16000   0.16000
     Eigenvalues ---    0.16000   0.21845   0.21845   0.29392   0.30287
     Eigenvalues ---    0.30287   0.33842   0.33842   0.33842   0.33842
     Eigenvalues ---    0.34486   0.34486   0.34574   0.34574   0.34574
     Eigenvalues ---    0.34574
 RFO step:  Lambda=-4.95214247D-04 EMin= 3.64542795D-03
 Linear search not attempted -- first point.
 Iteration  1 RMS(Cart)=  0.01366671 RMS(Int)=  0.00002904
 Iteration  2 RMS(Cart)=  0.00003777 RMS(Int)=  0.00000934
 Iteration  3 RMS(Cart)=  0.00000000 RMS(Int)=  0.00000934
 ClnCor:  largest displacement from symmetrization is 1.17D-08 for atom    10.
 Variable       Old X    -DE/DX   Delta X   Delta X   Delta X     New X
                                 (Linear)    (Quad)   (Total)
    R1        2.87394   0.00530   0.00000   0.01748   0.01748   2.89142
    R2        2.06518   0.00149   0.00000   0.00432   0.00432   2.06949
    R3        2.06372   0.00276   0.00000   0.00797   0.00797   2.07169
    R4        2.06372   0.00276   0.00000   0.00797   0.00797   2.07169
    R5        2.89193   0.00240   0.00000   0.00815   0.00815   2.90009
    R6        2.07598   0.00038   0.00000   0.00111   0.00111   2.07709
    R7        2.07598   0.00038   0.00000   0.00111   0.00111   2.07709
    R8        2.87394   0.00530   0.00000   0.01748   0.01748   2.89142
    R9        2.07598   0.00038   0.00000   0.00111   0.00111   2.07709
   R10        2.07598   0.00038   0.00000   0.00111   0.00111   2.07709
   R11        2.06372   0.00276   0.00000   0.00797   0.00797   2.07169
   R12        2.06518   0.00149   0.00000   0.00432   0.00432   2.06949
   R13        2.06372   0.00276   0.00000   0.00797   0.00797   2.07169
    A1        1.95677  -0.00056   0.00000  -0.00448  -0.00448   1.95229
    A2        1.94122  -0.00014   0.00000  -0.00035  -0.00036   1.94086
    A3        1.94122  -0.00014   0.00000  -0.00035  -0.00036   1.94086
    A4        1.87570   0.00027   0.00000   0.00072   0.00072   1.87642
    A5        1.87570   0.00027   0.00000   0.00072   0.00072   1.87642
    A6        1.86914   0.00036   0.00000   0.00418   0.00418   1.87332
    A7        1.96879   0.00294   0.00000   0.01125   0.01127   1.98006
    A8        1.92246  -0.00125   0.00000  -0.00816  -0.00815   1.91431
    A9        1.92246  -0.00125   0.00000  -0.00816  -0.00815   1.91431
   A10        1.90708  -0.00092   0.00000  -0.00404  -0.00402   1.90306
   A11        1.90708  -0.00092   0.00000  -0.00404  -0.00402   1.90306
   A12        1.83082   0.00127   0.00000   0.01322   0.01321   1.84403
   A13        1.96879   0.00294   0.00000   0.01125   0.01127   1.98006
   A14        1.90708  -0.00092   0.00000  -0.00404  -0.00402   1.90306
   A15        1.90708  -0.00092   0.00000  -0.00404  -0.00402   1.90306
   A16        1.92246  -0.00125   0.00000  -0.00816  -0.00815   1.91431
   A17        1.92246  -0.00125   0.00000  -0.00816  -0.00815   1.91431
   A18        1.83082   0.00127   0.00000   0.01322   0.01321   1.84403
   A19        1.94122  -0.00014   0.00000  -0.00035  -0.00036   1.94086
   A20        1.95677  -0.00056   0.00000  -0.00448  -0.00448   1.95229
   A21        1.94122  -0.00014   0.00000  -0.00035  -0.00036   1.94086
   A22        1.87570   0.00027   0.00000   0.00072   0.00072   1.87642
   A23        1.86914   0.00036   0.00000   0.00418   0.00418   1.87332
   A24        1.87570   0.00027   0.00000   0.00072   0.00072   1.87642
    D1        3.14159  -0.00000   0.00000  -0.00000   0.00000   3.14159
    D2        1.00562   0.00005   0.00000   0.00329   0.00331   1.00893
    D3       -1.00562  -0.00005   0.00000  -0.00329  -0.00331  -1.00893
    D4        1.04092   0.00014   0.00000   0.00240   0.00240   1.04332
    D5       -1.09505   0.00018   0.00000   0.00570   0.00571  -1.08934
    D6       -3.10630   0.00009   0.00000  -0.00089  -0.00090  -3.10720
    D7       -1.04092  -0.00014   0.00000  -0.00240  -0.00240  -1.04332
    D8        3.10630  -0.00009   0.00000   0.00089   0.00090   3.10720
    D9        1.09505  -0.00018   0.00000  -0.00570  -0.00571   1.08934
   D10        3.14159   0.00000   0.00000   0.00000   0.00000   3.14159
   D11        0.99702   0.00026   0.00000   0.00568   0.00568   1.00270
   D12       -0.99702  -0.00026   0.00000  -0.00568  -0.00568  -1.00270
   D13       -0.99702  -0.00026   0.00000  -0.00568  -0.00568  -1.00270
   D14        3.14159  -0.00000   0.00000   0.00000   0.00000   3.14159
   D15        1.14755  -0.00052   0.00000  -0.01135  -0.01135   1.13620
   D16        0.99702   0.00026   0.00000   0.00568   0.00568   1.00270
   D17       -1.14755   0.00052   0.00000   0.01135   0.01135  -1.13620
   D18        3.14159   0.00000   0.00000   0.00000   0.00000   3.14159
   D19       -1.04092  -0.00014   0.00000  -0.00240  -0.00240  -1.04332
   D20        3.14159  -0.00000   0.00000   0.00000   0.00000   3.14159
   D21        1.04092   0.00014   0.00000   0.00240   0.00240   1.04332
   D22        1.09505  -0.00018   0.00000  -0.00570  -0.00571   1.08934
   D23       -1.00562  -0.00005   0.00000  -0.00329  -0.00331  -1.00893
   D24       -3.10630   0.00009   0.00000  -0.00089  -0.00090  -3.10720
   D25        3.10630  -0.00009   0.00000   0.00089   0.00090   3.10720
   D26        1.00562   0.00005   0.00000   0.00329   0.00331   1.00893
   D27       -1.09505   0.00018   0.00000   0.00570   0.00571  -1.08934
         Item               Value     Threshold  Converged?
 Maximum Force            0.005302     0.000450     NO 
 RMS     Force            0.001425     0.000300     NO 
 Maximum Displacement     0.037305     0.001800     NO 
 RMS     Displacement     0.013680     0.001200     NO 
 Predicted change in Energy=-2.482498D-04
 GradGradGradGradGradGradGradGradGradGradGradGradGradGradGradGradGradGrad

                          Input orientation:                          
 ---------------------------------------------------------------------
 Center     Atomic      Atomic             Coordinates (Angstroms)
 Number     Number       Type             X           Y           Z
 ---------------------------------------------------------------------
      1          6           0        1.961311    0.132608    0.000000
      2          6           0        0.572927   -0.510440    0.000000
      3          6           0       -0.572927    0.510440    0.000000
      4          6           0       -1.961311   -0.132609    0.000000
      5          1           0        2.758444   -0.618315    0.000000
      6          1           0        2.104883    0.766074    0.883156
      7          1           0        2.104883    0.766074   -0.883156
      8          1           0        0.468746   -1.166340    0.875824
      9          1           0        0.468746   -1.166340   -0.875824
     10          1           0       -0.468746    1.166340   -0.875824
     11          1           0       -0.468746    1.166340    0.875824
     12          1           0       -2.104883   -0.766074   -0.883156
     13          1           0       -2.758444    0.618315    0.000000
     14          1           0       -2.104883   -0.766074    0.883156
 ---------------------------------------------------------------------
                    Distance matrix (angstroms):
                    1          2          3          4          5
     1  C    0.000000
     2  C    1.530072   0.000000
     3  C    2.562249   1.534659   0.000000
     4  C    3.931578   2.562249   1.530072   0.000000
     5  H    1.095129   2.188177   3.517403   4.744681   0.000000
     6  H    1.096292   2.180903   2.831251   4.256939   1.767382
     7  H    1.096292   2.180903   2.831251   4.256939   1.767382
     8  H    2.163813   1.099148   2.159570   2.782238   2.511994
     9  H    2.163813   1.099148   2.159570   2.782238   2.511994
    10  H    2.782238   2.159570   1.099148   2.163813   3.790359
    11  H    2.782238   2.159570   1.099148   2.163813   3.790359
    12  H    4.256939   2.831251   2.180903   1.096292   4.945072
    13  H    4.744681   3.517403   2.188177   1.095129   5.653786
    14  H    4.256939   2.831251   2.180903   1.096292   4.945072
                    6          7          8          9         10
     6  H    0.000000
     7  H    1.766312   0.000000
     8  H    2.532039   3.083047   0.000000
     9  H    3.083047   2.532039   1.751648   0.000000
    10  H    3.142895   2.604579   3.064076   2.514019   0.000000
    11  H    2.604579   3.142895   2.514019   3.064076   1.751648
    12  H    4.815544   4.479911   3.142895   2.604579   2.532039
    13  H    4.945072   4.945072   3.790359   3.790359   2.511994
    14  H    4.479911   4.815544   2.604579   3.142895   3.083047
                   11         12         13         14
    11  H    0.000000
    12  H    3.083047   0.000000
    13  H    2.511994   1.767382   0.000000
    14  H    2.532039   1.766312   1.767382   0.000000
 Stoichiometry    C4H10
 Framework group  C2H[SGH(C4H2),X(H8)]
 Deg. of freedom    11
 Full point group                 C2H     NOp   4
 Largest Abelian subgroup         C2H     NOp   4
 Largest concise Abelian subgroup C2H     NOp   4
                         Standard orientation:                         
 ---------------------------------------------------------------------
 Center     Atomic      Atomic             Coordinates (Angstroms)
 Number     Number       Type             X           Y           Z
 ---------------------------------------------------------------------
      1          6           0        0.703958    1.835421    0.000000
      2          6           0        0.703958    0.305349    0.000000
      3          6           0       -0.703958   -0.305349    0.000000
      4          6           0       -0.703958   -1.835421    0.000000
      5          1           0        1.720358    2.243144    0.000000
      6          1           0        0.189492    2.231926    0.883156
      7          1           0        0.189492    2.231926   -0.883156
      8          1           0        1.255336   -0.064842    0.875824
      9          1           0        1.255336   -0.064842   -0.875824
     10          1           0       -1.255336    0.064842   -0.875824
     11          1           0       -1.255336    0.064842    0.875824
     12          1           0       -0.189492   -2.231926   -0.883156
     13          1           0       -1.720358   -2.243144    0.000000
     14          1           0       -0.189492   -2.231926    0.883156
 ---------------------------------------------------------------------
 Rotational constants (GHZ):          23.4709091           3.5964926           3.3786762
 Standard basis: 6-31G(d,p) (6D, 7F)
 There are    36 symmetry adapted cartesian basis functions of AG  symmetry.
 There are    19 symmetry adapted cartesian basis functions of BG  symmetry.
 There are    19 symmetry adapted cartesian basis functions of AU  symmetry.
 There are    36 symmetry adapted cartesian basis functions of BU  symmetry.
 There are    36 symmetry adapted basis functions of AG  symmetry.
 There are    19 symmetry adapted basis functions of BG  symmetry.
 There are    19 symmetry adapted basis functions of AU  symmetry.
 There are    36 symmetry adapted basis functions of BU  symmetry.
   110 basis functions,   182 primitive gaussians,   110 cartesian basis functions
    17 alpha electrons       17 beta electrons
       nuclear repulsion energy       130.1763705045 Hartrees.
 NAtoms=   14 NActive=   14 NUniq=    5 SFac= 4.00D+00 NAtFMM=   60 NAOKFM=F Big=F
 Integral buffers will be    131072 words long.
 Raffenetti 2 integral format.
 Two-electron integral symmetry is turned on.
 One-electron integrals computed using PRISM.
 NBasis=   110 RedAO= T EigKep=  4.54D-03  NBF=    36    19    19    36
 NBsUse=   110 1.00D-06 EigRej= -1.00D+00 NBFU=    36    19    19    36
 Initial guess from the checkpoint file:  "CCCC.chk"
 B after Tr=    -0.000000   -0.000000   -0.000000
         Rot=    0.834134   -0.000000    0.000000    0.551562 Ang=  66.95 deg.
 Initial guess orbital symmetries:
       Occupied  (AG) (BU) (BU) (AG) (AG) (BU) (AG) (BU) (AU) (AG)
                 (BU) (BG) (BU) (AU) (AG) (AG) (BG)
       Virtual   (AG) (BU) (AU) (BU) (AG) (BU) (AG) (BG) (BG) (AU)
                 (BU) (AG) (BU) (BU) (AG) (AG) (BG) (AU) (BU) (AU)
                 (AG) (BU) (BU) (BG) (AG) (AU) (AG) (BU) (BG) (AG)
                 (AU) (BU) (BU) (AG) (BG) (AG) (AU) (BU) (BU) (AG)
                 (AG) (BU) (BG) (AU) (BG) (BU) (AG) (AG) (BU) (AG)
                 (BG) (AU) (BG) (AU) (BU) (AU) (BG) (AG) (AU) (BU)
                 (BG) (AU) (AG) (BG) (BU) (AG) (BU) (AU) (BU) (AG)
                 (AG) (BU) (BG) (BU) (AG) (AU) (AG) (BG) (BU) (AG)
                 (BU) (AG) (BG) (BU) (AU) (AG) (BU) (BG) (AU) (AG)
                 (BU) (AG) (BU)
 ExpMin= 1.61D-01 ExpMax= 3.05D+03 ExpMxC= 4.57D+02 IAcc=3 IRadAn=         5 AccDes= 0.00D+00
 Harris functional with IExCor=  402 and IRadAn=       5 diagonalized for initial guess.
 HarFok:  IExCor=  402 AccDes= 0.00D+00 IRadAn=         5 IDoV= 1 UseB2=F ITyADJ=14
 ICtDFT=  3500011 ScaDFX=  1.000000  1.000000  1.000000  1.000000
 FoFCou: FMM=F IPFlag=           0 FMFlag=      100000 FMFlg1=           0
         NFxFlg=           0 DoJE=T BraDBF=F KetDBF=T FulRan=T
         wScrn=  0.000000 ICntrl=       500 IOpCl=  0 I1Cent=   200000004 NGrid=           0
         NMat0=    1 NMatS0=      1 NMatT0=    0 NMatD0=    1 NMtDS0=    0 NMtDT0=    0
 Petite list used in FoFCou.
 Keep R1 ints in memory in symmetry-blocked form, NReq=26135451.
 Requested convergence on RMS density matrix=1.00D-08 within 128 cycles.
 Requested convergence on MAX density matrix=1.00D-06.
 Requested convergence on             energy=1.00D-06.
 Level shift goal  0.100 maximum shift  0.100.
 No special actions if energy rises.
 Dynamic level shift is on during FON iterations.
 Integral accuracy reduced to 1.0D-05 until final iterations.
 Initial convergence to 1.0D-05 achieved.  Increase integral accuracy.
 SCF Done:  E(RB3LYP) =  -158.471939396     A.U. after    9 cycles
            NFock=  9  Conv=0.33D-08     -V/T= 2.0105
 Calling FoFJK, ICntrl=      2127 FMM=F ISym2X=1 I1Cent= 0 IOpClX= 0 NMat=1 NMatS=1 NMatT=0.
 ***** Axes restored to original set *****
 -------------------------------------------------------------------
 Center     Atomic                   Forces (Hartrees/Bohr)
 Number     Number              X              Y              Z
 -------------------------------------------------------------------
      1        6           0.000722243    0.000866346   -0.000000000
      2        6          -0.001397954   -0.001317868   -0.000000000
      3        6           0.001397954    0.001317868   -0.000000000
      4        6          -0.000722243   -0.000866346    0.000000000
      5        1          -0.000483527   -0.000269426    0.000000000
      6        1          -0.000120694   -0.000075014   -0.000040985
      7        1          -0.000120694   -0.000075014    0.000040985
      8        1           0.000304153    0.000348322    0.000059268
      9        1           0.000304153    0.000348322   -0.000059268
     10        1          -0.000304153   -0.000348322   -0.000059268
     11        1          -0.000304153   -0.000348322    0.000059268
     12        1           0.000120694    0.000075014    0.000040985
     13        1           0.000483527    0.000269426   -0.000000000
     14        1           0.000120694    0.000075014   -0.000040985
 -------------------------------------------------------------------
 Cartesian Forces:  Max     0.001397954 RMS     0.000523181

 GradGradGradGradGradGradGradGradGradGradGradGradGradGradGradGradGradGrad
 Berny optimization.
 Using GEDIIS/GDIIS optimizer.
 FormGI is forming the generalized inverse of G from B-inverse, IUseBI=4.
 Internal  Forces:  Max     0.000725042 RMS     0.000221031
 Search for a local minimum.
 Step number   2 out of a maximum of   74
 All quantities printed in internal units (Hartrees-Bohrs-Radians)
 Mixed Optimization -- En-DIIS/RFO-DIIS
 Update second derivatives using D2CorX and points    1    2
 DE= -2.55D-04 DEPred=-2.48D-04 R= 1.03D+00
 TightC=F SS=  1.41D+00  RLast= 5.07D-02 DXNew= 5.0454D-01 1.5213D-01
 Trust test= 1.03D+00 RLast= 5.07D-02 DXMaxT set to 3.00D-01
 ITU=  1  0
 Use linear search instead of GDIIS.
     Eigenvalues ---    0.00365   0.00490   0.00490   0.03476   0.03476
     Eigenvalues ---    0.04476   0.04840   0.05488   0.05488   0.05531
     Eigenvalues ---    0.05572   0.08359   0.08531   0.12340   0.12340
     Eigenvalues ---    0.15336   0.16000   0.16000   0.16000   0.16000
     Eigenvalues ---    0.16013   0.21890   0.23167   0.29252   0.30287
     Eigenvalues ---    0.30717   0.33842   0.33842   0.33842   0.33855
     Eigenvalues ---    0.34483   0.34486   0.34574   0.34574   0.34574
     Eigenvalues ---    0.36322
 RFO step:  Lambda=-2.68135799D-05 EMin= 3.64542795D-03
 Quartic linear search produced a step of  0.03525.
 Iteration  1 RMS(Cart)=  0.00215315 RMS(Int)=  0.00000539
 Iteration  2 RMS(Cart)=  0.00000580 RMS(Int)=  0.00000241
 Iteration  3 RMS(Cart)=  0.00000000 RMS(Int)=  0.00000241
 ClnCor:  largest displacement from symmetrization is 1.26D-08 for atom    10.
 Variable       Old X    -DE/DX   Delta X   Delta X   Delta X     New X
                                 (Linear)    (Quad)   (Total)
    R1        2.89142   0.00019   0.00062   0.00096   0.00158   2.89299
    R2        2.06949  -0.00017   0.00015  -0.00042  -0.00027   2.06922
    R3        2.07169  -0.00009   0.00028  -0.00013   0.00015   2.07184
    R4        2.07169  -0.00009   0.00028  -0.00013   0.00015   2.07184
    R5        2.90009  -0.00048   0.00029  -0.00152  -0.00124   2.89885
    R6        2.07709  -0.00019   0.00004  -0.00056  -0.00052   2.07657
    R7        2.07709  -0.00019   0.00004  -0.00056  -0.00052   2.07657
    R8        2.89142   0.00019   0.00062   0.00096   0.00158   2.89299
    R9        2.07709  -0.00019   0.00004  -0.00056  -0.00052   2.07657
   R10        2.07709  -0.00019   0.00004  -0.00056  -0.00052   2.07657
   R11        2.07169  -0.00009   0.00028  -0.00013   0.00015   2.07184
   R12        2.06949  -0.00017   0.00015  -0.00042  -0.00027   2.06922
   R13        2.07169  -0.00009   0.00028  -0.00013   0.00015   2.07184
    A1        1.95229  -0.00073  -0.00016  -0.00525  -0.00541   1.94688
    A2        1.94086  -0.00000  -0.00001   0.00021   0.00020   1.94106
    A3        1.94086  -0.00000  -0.00001   0.00021   0.00020   1.94106
    A4        1.87642   0.00034   0.00003   0.00178   0.00181   1.87823
    A5        1.87642   0.00034   0.00003   0.00178   0.00181   1.87823
    A6        1.87332   0.00010   0.00015   0.00161   0.00176   1.87508
    A7        1.98006  -0.00037   0.00040  -0.00253  -0.00213   1.97793
    A8        1.91431  -0.00008  -0.00029  -0.00221  -0.00249   1.91182
    A9        1.91431  -0.00008  -0.00029  -0.00221  -0.00249   1.91182
   A10        1.90306   0.00022  -0.00014   0.00155   0.00140   1.90447
   A11        1.90306   0.00022  -0.00014   0.00155   0.00140   1.90447
   A12        1.84403   0.00013   0.00047   0.00438   0.00484   1.84887
   A13        1.98006  -0.00037   0.00040  -0.00253  -0.00213   1.97793
   A14        1.90306   0.00022  -0.00014   0.00155   0.00140   1.90447
   A15        1.90306   0.00022  -0.00014   0.00155   0.00140   1.90447
   A16        1.91431  -0.00008  -0.00029  -0.00221  -0.00249   1.91182
   A17        1.91431  -0.00008  -0.00029  -0.00221  -0.00249   1.91182
   A18        1.84403   0.00013   0.00047   0.00438   0.00484   1.84887
   A19        1.94086  -0.00000  -0.00001   0.00021   0.00020   1.94106
   A20        1.95229  -0.00073  -0.00016  -0.00525  -0.00541   1.94688
   A21        1.94086  -0.00000  -0.00001   0.00021   0.00020   1.94106
   A22        1.87642   0.00034   0.00003   0.00178   0.00181   1.87823
   A23        1.87332   0.00010   0.00015   0.00161   0.00176   1.87508
   A24        1.87642   0.00034   0.00003   0.00178   0.00181   1.87823
    D1        3.14159  -0.00000   0.00000   0.00000   0.00000   3.14159
    D2        1.00893   0.00003   0.00012   0.00138   0.00150   1.01043
    D3       -1.00893  -0.00003  -0.00012  -0.00138  -0.00150  -1.01043
    D4        1.04332   0.00006   0.00008   0.00116   0.00124   1.04457
    D5       -1.08934   0.00009   0.00020   0.00254   0.00274  -1.08660
    D6       -3.10720   0.00003  -0.00003  -0.00022  -0.00025  -3.10745
    D7       -1.04332  -0.00006  -0.00008  -0.00116  -0.00124  -1.04457
    D8        3.10720  -0.00003   0.00003   0.00022   0.00025   3.10745
    D9        1.08934  -0.00009  -0.00020  -0.00254  -0.00274   1.08660
   D10        3.14159  -0.00000   0.00000  -0.00000   0.00000   3.14159
   D11        1.00270   0.00020   0.00020   0.00344   0.00364   1.00634
   D12       -1.00270  -0.00020  -0.00020  -0.00344  -0.00364  -1.00634
   D13       -1.00270  -0.00020  -0.00020  -0.00344  -0.00364  -1.00634
   D14        3.14159  -0.00000   0.00000  -0.00000   0.00000   3.14159
   D15        1.13620  -0.00040  -0.00040  -0.00687  -0.00728   1.12892
   D16        1.00270   0.00020   0.00020   0.00344   0.00364   1.00634
   D17       -1.13620   0.00040   0.00040   0.00687   0.00728  -1.12892
   D18        3.14159  -0.00000   0.00000  -0.00000   0.00000   3.14159
   D19       -1.04332  -0.00006  -0.00008  -0.00116  -0.00124  -1.04457
   D20        3.14159   0.00000   0.00000   0.00000   0.00000   3.14159
   D21        1.04332   0.00006   0.00008   0.00116   0.00124   1.04457
   D22        1.08934  -0.00009  -0.00020  -0.00254  -0.00274   1.08660
   D23       -1.00893  -0.00003  -0.00012  -0.00138  -0.00150  -1.01043
   D24       -3.10720   0.00003  -0.00003  -0.00022  -0.00025  -3.10745
   D25        3.10720  -0.00003   0.00003   0.00022   0.00025   3.10745
   D26        1.00893   0.00003   0.00012   0.00138   0.00150   1.01043
   D27       -1.08934   0.00009   0.00020   0.00254   0.00274  -1.08660
         Item               Value     Threshold  Converged?
 Maximum Force            0.000725     0.000450     NO 
 RMS     Force            0.000221     0.000300     YES
 Maximum Displacement     0.007935     0.001800     NO 
 RMS     Displacement     0.002154     0.001200     NO 
 Predicted change in Energy=-1.366048D-05
 GradGradGradGradGradGradGradGradGradGradGradGradGradGradGradGradGradGrad

                          Input orientation:                          
 ---------------------------------------------------------------------
 Center     Atomic      Atomic             Coordinates (Angstroms)
 Number     Number       Type             X           Y           Z
 ---------------------------------------------------------------------
      1          6           0        1.960615    0.133713    0.000000
      2          6           0        0.572051   -0.510930    0.000000
      3          6           0       -0.572051    0.510930    0.000000
      4          6           0       -1.960615   -0.133713    0.000000
      5          1           0        2.754245   -0.620705    0.000000
      6          1           0        2.104293    0.766405    0.883793
      7          1           0        2.104293    0.766405   -0.883793
      8          1           0        0.470476   -1.164926    0.877208
      9          1           0        0.470476   -1.164926   -0.877208
     10          1           0       -0.470476    1.164926   -0.877208
     11          1           0       -0.470476    1.164926    0.877208
     12          1           0       -2.104293   -0.766406   -0.883793
     13          1           0       -2.754245    0.620705    0.000000
     14          1           0       -2.104293   -0.766406    0.883793
 ---------------------------------------------------------------------
                    Distance matrix (angstroms):
                    1          2          3          4          5
     1  C    0.000000
     2  C    1.530906   0.000000
     3  C    2.560603   1.534004   0.000000
     4  C    3.930338   2.560603   1.530906   0.000000
     5  H    1.094986   2.184953   3.513523   4.739943   0.000000
     6  H    1.096373   2.181844   2.830049   4.256146   1.768503
     7  H    1.096373   2.181844   2.830049   4.256146   1.768503
     8  H    2.162515   1.098873   2.159827   2.782642   2.506246
     9  H    2.162515   1.098873   2.159827   2.782642   2.506246
    10  H    2.782642   2.159827   1.098873   2.162515   3.789036
    11  H    2.782642   2.159827   1.098873   2.162515   3.789036
    12  H    4.256146   2.830049   2.181844   1.096373   4.940416
    13  H    4.739943   3.513523   2.184953   1.094986   5.646641
    14  H    4.256146   2.830049   2.181844   1.096373   4.940416
                    6          7          8          9         10
     6  H    0.000000
     7  H    1.767586   0.000000
     8  H    2.529712   3.082292   0.000000
     9  H    3.082292   2.529712   1.754416   0.000000
    10  H    3.144739   2.605437   3.064569   2.512689   0.000000
    11  H    2.605437   3.144739   2.512689   3.064569   1.754416
    12  H    4.815192   4.479030   3.144739   2.605437   2.529712
    13  H    4.940416   4.940416   3.789036   3.789036   2.506246
    14  H    4.479030   4.815192   2.605437   3.144739   3.082292
                   11         12         13         14
    11  H    0.000000
    12  H    3.082292   0.000000
    13  H    2.506246   1.768503   0.000000
    14  H    2.529712   1.767586   1.768503   0.000000
 Stoichiometry    C4H10
 Framework group  C2H[SGH(C4H2),X(H8)]
 Deg. of freedom    11
 Full point group                 C2H     NOp   4
 Largest Abelian subgroup         C2H     NOp   4
 Largest concise Abelian subgroup C2H     NOp   4
                         Standard orientation:                         
 ---------------------------------------------------------------------
 Center     Atomic      Atomic             Coordinates (Angstroms)
 Number     Number       Type             X           Y           Z
 ---------------------------------------------------------------------
      1          6           0        0.704307    1.834623    0.000000
      2          6           0        0.704307    0.303717    0.000000
      3          6           0       -0.704307   -0.303717    0.000000
      4          6           0       -0.704307   -1.834623    0.000000
      5          1           0        1.722766    2.236787    0.000000
      6          1           0        0.190942    2.231360    0.883793
      7          1           0        0.190942    2.231360   -0.883793
      8          1           0        1.254723   -0.063802    0.877208
      9          1           0        1.254723   -0.063802   -0.877208
     10          1           0       -1.254723    0.063802   -0.877208
     11          1           0       -1.254723    0.063802    0.877208
     12          1           0       -0.190942   -2.231360   -0.883793
     13          1           0       -1.722766   -2.236787    0.000000
     14          1           0       -0.190942   -2.231360    0.883793
 ---------------------------------------------------------------------
 Rotational constants (GHZ):          23.4403724           3.5997033           3.3815228
 Standard basis: 6-31G(d,p) (6D, 7F)
 There are    36 symmetry adapted cartesian basis functions of AG  symmetry.
 There are    19 symmetry adapted cartesian basis functions of BG  symmetry.
 There are    19 symmetry adapted cartesian basis functions of AU  symmetry.
 There are    36 symmetry adapted cartesian basis functions of BU  symmetry.
 There are    36 symmetry adapted basis functions of AG  symmetry.
 There are    19 symmetry adapted basis functions of BG  symmetry.
 There are    19 symmetry adapted basis functions of AU  symmetry.
 There are    36 symmetry adapted basis functions of BU  symmetry.
   110 basis functions,   182 primitive gaussians,   110 cartesian basis functions
    17 alpha electrons       17 beta electrons
       nuclear repulsion energy       130.1927136640 Hartrees.
 NAtoms=   14 NActive=   14 NUniq=    5 SFac= 4.00D+00 NAtFMM=   60 NAOKFM=F Big=F
 Integral buffers will be    131072 words long.
 Raffenetti 2 integral format.
 Two-electron integral symmetry is turned on.
 One-electron integrals computed using PRISM.
 NBasis=   110 RedAO= T EigKep=  4.52D-03  NBF=    36    19    19    36
 NBsUse=   110 1.00D-06 EigRej= -1.00D+00 NBFU=    36    19    19    36
 Initial guess from the checkpoint file:  "CCCC.chk"
 B after Tr=    -0.000000   -0.000000    0.000000
         Rot=    1.000000    0.000000    0.000000    0.000368 Ang=   0.04 deg.
 Initial guess orbital symmetries:
       Occupied  (AG) (BU) (BU) (AG) (AG) (BU) (AG) (BU) (AU) (AG)
                 (BU) (BG) (BU) (AU) (AG) (AG) (BG)
       Virtual   (AG) (BU) (AU) (BU) (AG) (BU) (AG) (BG) (BG) (AU)
                 (BU) (AG) (BU) (BU) (AG) (AG) (BG) (AU) (BU) (AU)
                 (AG) (BU) (BU) (BG) (AG) (AU) (AG) (BU) (BG) (AG)
                 (AU) (BU) (BU) (AG) (BG) (AG) (AU) (BU) (BU) (AG)
                 (AG) (BU) (BG) (AU) (BG) (BU) (AG) (AG) (BU) (AG)
                 (BG) (AU) (BG) (AU) (BU) (AU) (BG) (AG) (AU) (BU)
                 (BG) (AU) (AG) (BG) (BU) (AG) (BU) (AU) (BU) (AG)
                 (AG) (BU) (BG) (BU) (AG) (AU) (AG) (BG) (BU) (AG)
                 (BU) (AG) (BG) (BU) (AU) (AG) (BU) (BG) (AU) (AG)
                 (BU) (AG) (BU)
 Keep R1 ints in memory in symmetry-blocked form, NReq=26135451.
 Requested convergence on RMS density matrix=1.00D-08 within 128 cycles.
 Requested convergence on MAX density matrix=1.00D-06.
 Requested convergence on             energy=1.00D-06.
 Level shift goal  0.100 maximum shift  0.100.
 No special actions if energy rises.
 Dynamic level shift is on during FON iterations.
 SCF Done:  E(RB3LYP) =  -158.471953906     A.U. after    7 cycles
            NFock=  7  Conv=0.35D-08     -V/T= 2.0105
 Calling FoFJK, ICntrl=      2127 FMM=F ISym2X=1 I1Cent= 0 IOpClX= 0 NMat=1 NMatS=1 NMatT=0.
 ***** Axes restored to original set *****
 -------------------------------------------------------------------
 Center     Atomic                   Forces (Hartrees/Bohr)
 Number     Number              X              Y              Z
 -------------------------------------------------------------------
      1        6           0.000369328    0.000250382    0.000000000
      2        6          -0.000381137   -0.000096016   -0.000000000
      3        6           0.000381137    0.000096016   -0.000000000
      4        6          -0.000369328   -0.000250382    0.000000000
      5        1          -0.000048343    0.000025548    0.000000000
      6        1          -0.000062060   -0.000117665   -0.000165730
      7        1          -0.000062060   -0.000117665    0.000165730
      8        1           0.000045037    0.000063746   -0.000082058
      9        1           0.000045037    0.000063746    0.000082058
     10        1          -0.000045037   -0.000063746    0.000082058
     11        1          -0.000045037   -0.000063746   -0.000082058
     12        1           0.000062060    0.000117665    0.000165730
     13        1           0.000048343   -0.000025548    0.000000000
     14        1           0.000062060    0.000117665   -0.000165730
 -------------------------------------------------------------------
 Cartesian Forces:  Max     0.000381137 RMS     0.000150007

 GradGradGradGradGradGradGradGradGradGradGradGradGradGradGradGradGradGrad
 Berny optimization.
 Using GEDIIS/GDIIS optimizer.
 FormGI is forming the generalized inverse of G from B-inverse, IUseBI=4.
 Internal  Forces:  Max     0.000209502 RMS     0.000072685
 Search for a local minimum.
 Step number   3 out of a maximum of   74
 All quantities printed in internal units (Hartrees-Bohrs-Radians)
 Mixed Optimization -- En-DIIS/RFO-DIIS
 Swapping is turned off.
 Update second derivatives using D2CorX and points    1    2    3
 DE= -1.45D-05 DEPred=-1.37D-05 R= 1.06D+00
 TightC=F SS=  1.41D+00  RLast= 1.95D-02 DXNew= 5.0454D-01 5.8397D-02
 Trust test= 1.06D+00 RLast= 1.95D-02 DXMaxT set to 3.00D-01
 ITU=  1  1  0
     Eigenvalues ---    0.00365   0.00490   0.00490   0.03497   0.03497
     Eigenvalues ---    0.04443   0.04850   0.05524   0.05524   0.05571
     Eigenvalues ---    0.05595   0.07997   0.08501   0.12318   0.12318
     Eigenvalues ---    0.14820   0.16000   0.16000   0.16000   0.16000
     Eigenvalues ---    0.16198   0.21898   0.23346   0.28557   0.30287
     Eigenvalues ---    0.30908   0.33803   0.33842   0.33842   0.33842
     Eigenvalues ---    0.34486   0.34574   0.34574   0.34574   0.34690
     Eigenvalues ---    0.36705
 En-DIIS/RFO-DIIS/Sim-DIIS IScMMF=       -3 using points:     3    2
 RFO step:  Lambda=-1.27757190D-06.
 DidBck=F Rises=F RFO-DIIS coefs:    1.07743   -0.07743
 Iteration  1 RMS(Cart)=  0.00026818 RMS(Int)=  0.00000023
 Iteration  2 RMS(Cart)=  0.00000006 RMS(Int)=  0.00000022
 ClnCor:  largest displacement from symmetrization is 6.37D-09 for atom    11.
 Variable       Old X    -DE/DX   Delta X   Delta X   Delta X     New X
                                 (Linear)    (Quad)   (Total)
    R1        2.89299   0.00020   0.00012   0.00073   0.00085   2.89384
    R2        2.06922  -0.00005  -0.00002  -0.00013  -0.00015   2.06907
    R3        2.07184  -0.00021   0.00001  -0.00060  -0.00059   2.07125
    R4        2.07184  -0.00021   0.00001  -0.00060  -0.00059   2.07125
    R5        2.89885  -0.00012  -0.00010  -0.00034  -0.00044   2.89841
    R6        2.07657  -0.00011  -0.00004  -0.00031  -0.00035   2.07622
    R7        2.07657  -0.00011  -0.00004  -0.00031  -0.00035   2.07622
    R8        2.89299   0.00020   0.00012   0.00073   0.00085   2.89384
    R9        2.07657  -0.00011  -0.00004  -0.00031  -0.00035   2.07622
   R10        2.07657  -0.00011  -0.00004  -0.00031  -0.00035   2.07622
   R11        2.07184  -0.00021   0.00001  -0.00060  -0.00059   2.07125
   R12        2.06922  -0.00005  -0.00002  -0.00013  -0.00015   2.06907
   R13        2.07184  -0.00021   0.00001  -0.00060  -0.00059   2.07125
    A1        1.94688  -0.00000  -0.00042   0.00023  -0.00019   1.94669
    A2        1.94106  -0.00004   0.00002  -0.00030  -0.00028   1.94078
    A3        1.94106  -0.00004   0.00002  -0.00030  -0.00028   1.94078
    A4        1.87823   0.00003   0.00014   0.00019   0.00033   1.87855
    A5        1.87823   0.00003   0.00014   0.00019   0.00033   1.87855
    A6        1.87508   0.00003   0.00014   0.00000   0.00014   1.87522
    A7        1.97793   0.00002  -0.00017   0.00025   0.00008   1.97801
    A8        1.91182  -0.00003  -0.00019  -0.00026  -0.00045   1.91136
    A9        1.91182  -0.00003  -0.00019  -0.00026  -0.00045   1.91136
   A10        1.90447   0.00001   0.00011   0.00015   0.00026   1.90473
   A11        1.90447   0.00001   0.00011   0.00015   0.00026   1.90473
   A12        1.84887   0.00001   0.00037  -0.00005   0.00033   1.84919
   A13        1.97793   0.00002  -0.00017   0.00025   0.00008   1.97801
   A14        1.90447   0.00001   0.00011   0.00015   0.00026   1.90473
   A15        1.90447   0.00001   0.00011   0.00015   0.00026   1.90473
   A16        1.91182  -0.00003  -0.00019  -0.00026  -0.00045   1.91136
   A17        1.91182  -0.00003  -0.00019  -0.00026  -0.00045   1.91136
   A18        1.84887   0.00001   0.00037  -0.00005   0.00033   1.84919
   A19        1.94106  -0.00004   0.00002  -0.00030  -0.00028   1.94078
   A20        1.94688  -0.00000  -0.00042   0.00023  -0.00019   1.94669
   A21        1.94106  -0.00004   0.00002  -0.00030  -0.00028   1.94078
   A22        1.87823   0.00003   0.00014   0.00019   0.00033   1.87855
   A23        1.87508   0.00003   0.00014   0.00000   0.00014   1.87522
   A24        1.87823   0.00003   0.00014   0.00019   0.00033   1.87855
    D1        3.14159   0.00000  -0.00000  -0.00000   0.00000   3.14159
    D2        1.01043  -0.00001   0.00012  -0.00018  -0.00006   1.01037
    D3       -1.01043   0.00001  -0.00012   0.00018   0.00006  -1.01037
    D4        1.04457  -0.00001   0.00010  -0.00020  -0.00010   1.04447
    D5       -1.08660  -0.00002   0.00021  -0.00037  -0.00016  -1.08676
    D6       -3.10745   0.00000  -0.00002  -0.00002  -0.00004  -3.10749
    D7       -1.04457   0.00001  -0.00010   0.00020   0.00010  -1.04447
    D8        3.10745  -0.00000   0.00002   0.00002   0.00004   3.10749
    D9        1.08660   0.00002  -0.00021   0.00037   0.00016   1.08676
   D10        3.14159  -0.00000  -0.00000  -0.00000   0.00000   3.14159
   D11        1.00634   0.00001   0.00028   0.00006   0.00034   1.00667
   D12       -1.00634  -0.00001  -0.00028  -0.00006  -0.00034  -1.00667
   D13       -1.00634  -0.00001  -0.00028  -0.00006  -0.00034  -1.00667
   D14        3.14159   0.00000  -0.00000  -0.00000   0.00000   3.14159
   D15        1.12892  -0.00002  -0.00056  -0.00011  -0.00068   1.12825
   D16        1.00634   0.00001   0.00028   0.00006   0.00034   1.00667
   D17       -1.12892   0.00002   0.00056   0.00011   0.00068  -1.12825
   D18        3.14159  -0.00000  -0.00000  -0.00000   0.00000   3.14159
   D19       -1.04457   0.00001  -0.00010   0.00020   0.00010  -1.04447
   D20        3.14159   0.00000  -0.00000   0.00000   0.00000   3.14159
   D21        1.04457  -0.00001   0.00010  -0.00020  -0.00010   1.04447
   D22        1.08660   0.00002  -0.00021   0.00037   0.00016   1.08676
   D23       -1.01043   0.00001  -0.00012   0.00018   0.00006  -1.01037
   D24       -3.10745   0.00000  -0.00002  -0.00002  -0.00004  -3.10749
   D25        3.10745  -0.00000   0.00002   0.00002   0.00004   3.10749
   D26        1.01043  -0.00001   0.00012  -0.00018  -0.00006   1.01037
   D27       -1.08660  -0.00002   0.00021  -0.00037  -0.00016  -1.08676
         Item               Value     Threshold  Converged?
 Maximum Force            0.000210     0.000450     YES
 RMS     Force            0.000073     0.000300     YES
 Maximum Displacement     0.000722     0.001800     YES
 RMS     Displacement     0.000268     0.001200     YES
 Predicted change in Energy=-6.387673D-07
 Optimization completed.
    -- Stationary point found.
                           ----------------------------
                           !   Optimized Parameters   !
                           ! (Angstroms and Degrees)  !
 --------------------------                            --------------------------
 ! Name  Definition              Value          Derivative Info.                !
 --------------------------------------------------------------------------------
 ! R1    R(1,2)                  1.5309         -DE/DX =    0.0002              !
 ! R2    R(1,5)                  1.095          -DE/DX =   -0.0001              !
 ! R3    R(1,6)                  1.0964         -DE/DX =   -0.0002              !
 ! R4    R(1,7)                  1.0964         -DE/DX =   -0.0002              !
 ! R5    R(2,3)                  1.534          -DE/DX =   -0.0001              !
 ! R6    R(2,8)                  1.0989         -DE/DX =   -0.0001              !
 ! R7    R(2,9)                  1.0989         -DE/DX =   -0.0001              !
 ! R8    R(3,4)                  1.5309         -DE/DX =    0.0002              !
 ! R9    R(3,10)                 1.0989         -DE/DX =   -0.0001              !
 ! R10   R(3,11)                 1.0989         -DE/DX =   -0.0001              !
 ! R11   R(4,12)                 1.0964         -DE/DX =   -0.0002              !
 ! R12   R(4,13)                 1.095          -DE/DX =   -0.0001              !
 ! R13   R(4,14)                 1.0964         -DE/DX =   -0.0002              !
 ! A1    A(2,1,5)              111.5478         -DE/DX =    0.0                 !
 ! A2    A(2,1,6)              111.2147         -DE/DX =    0.0                 !
 ! A3    A(2,1,7)              111.2147         -DE/DX =    0.0                 !
 ! A4    A(5,1,6)              107.6144         -DE/DX =    0.0                 !
 ! A5    A(5,1,7)              107.6144         -DE/DX =    0.0                 !
 ! A6    A(6,1,7)              107.4344         -DE/DX =    0.0                 !
 ! A7    A(1,2,3)              113.3271         -DE/DX =    0.0                 !
 ! A8    A(1,2,8)              109.5392         -DE/DX =    0.0                 !
 ! A9    A(1,2,9)              109.5392         -DE/DX =    0.0                 !
 ! A10   A(3,2,8)              109.1179         -DE/DX =    0.0                 !
 ! A11   A(3,2,9)              109.1179         -DE/DX =    0.0                 !
 ! A12   A(8,2,9)              105.9323         -DE/DX =    0.0                 !
 ! A13   A(2,3,4)              113.3271         -DE/DX =    0.0                 !
 ! A14   A(2,3,10)             109.1179         -DE/DX =    0.0                 !
 ! A15   A(2,3,11)             109.1179         -DE/DX =    0.0                 !
 ! A16   A(4,3,10)             109.5392         -DE/DX =    0.0                 !
 ! A17   A(4,3,11)             109.5392         -DE/DX =    0.0                 !
 ! A18   A(10,3,11)            105.9323         -DE/DX =    0.0                 !
 ! A19   A(3,4,12)             111.2147         -DE/DX =    0.0                 !
 ! A20   A(3,4,13)             111.5478         -DE/DX =    0.0                 !
 ! A21   A(3,4,14)             111.2147         -DE/DX =    0.0                 !
 ! A22   A(12,4,13)            107.6144         -DE/DX =    0.0                 !
 ! A23   A(12,4,14)            107.4344         -DE/DX =    0.0                 !
 ! A24   A(13,4,14)            107.6144         -DE/DX =    0.0                 !
 ! D1    D(5,1,2,3)            180.0            -DE/DX =    0.0                 !
 ! D2    D(5,1,2,8)             57.8932         -DE/DX =    0.0                 !
 ! D3    D(5,1,2,9)            -57.8932         -DE/DX =    0.0                 !
 ! D4    D(6,1,2,3)             59.8492         -DE/DX =    0.0                 !
 ! D5    D(6,1,2,8)            -62.2576         -DE/DX =    0.0                 !
 ! D6    D(6,1,2,9)           -178.044          -DE/DX =    0.0                 !
 ! D7    D(7,1,2,3)            -59.8492         -DE/DX =    0.0                 !
 ! D8    D(7,1,2,8)            178.044          -DE/DX =    0.0                 !
 ! D9    D(7,1,2,9)             62.2576         -DE/DX =    0.0                 !
 ! D10   D(1,2,3,4)            180.0            -DE/DX =    0.0                 !
 ! D11   D(1,2,3,10)            57.6588         -DE/DX =    0.0                 !
 ! D12   D(1,2,3,11)           -57.6588         -DE/DX =    0.0                 !
 ! D13   D(8,2,3,4)            -57.6588         -DE/DX =    0.0                 !
 ! D14   D(8,2,3,10)           180.0            -DE/DX =    0.0                 !
 ! D15   D(8,2,3,11)            64.6824         -DE/DX =    0.0                 !
 ! D16   D(9,2,3,4)             57.6588         -DE/DX =    0.0                 !
 ! D17   D(9,2,3,10)           -64.6824         -DE/DX =    0.0                 !
 ! D18   D(9,2,3,11)           180.0            -DE/DX =    0.0                 !
 ! D19   D(2,3,4,12)           -59.8492         -DE/DX =    0.0                 !
 ! D20   D(2,3,4,13)           180.0            -DE/DX =    0.0                 !
 ! D21   D(2,3,4,14)            59.8492         -DE/DX =    0.0                 !
 ! D22   D(10,3,4,12)           62.2576         -DE/DX =    0.0                 !
 ! D23   D(10,3,4,13)          -57.8932         -DE/DX =    0.0                 !
 ! D24   D(10,3,4,14)         -178.044          -DE/DX =    0.0                 !
 ! D25   D(11,3,4,12)          178.044          -DE/DX =    0.0                 !
 ! D26   D(11,3,4,13)           57.8932         -DE/DX =    0.0                 !
 ! D27   D(11,3,4,14)          -62.2576         -DE/DX =    0.0                 !
 --------------------------------------------------------------------------------
 GradGradGradGradGradGradGradGradGradGradGradGradGradGradGradGradGradGrad

                          Input orientation:                          
 ---------------------------------------------------------------------
 Center     Atomic      Atomic             Coordinates (Angstroms)
 Number     Number       Type             X           Y           Z
 ---------------------------------------------------------------------
      1          6           0        1.960615    0.133713    0.000000
      2          6           0        0.572051   -0.510930    0.000000
      3          6           0       -0.572051    0.510930    0.000000
      4          6           0       -1.960615   -0.133713    0.000000
      5          1           0        2.754245   -0.620705    0.000000
      6          1           0        2.104293    0.766405    0.883793
      7          1           0        2.104293    0.766405   -0.883793
      8          1           0        0.470476   -1.164926    0.877208
      9          1           0        0.470476   -1.164926   -0.877208
     10          1           0       -0.470476    1.164926   -0.877208
     11          1           0       -0.470476    1.164926    0.877208
     12          1           0       -2.104293   -0.766406   -0.883793
     13          1           0       -2.754245    0.620705    0.000000
     14          1           0       -2.104293   -0.766406    0.883793
 ---------------------------------------------------------------------
                    Distance matrix (angstroms):
                    1          2          3          4          5
     1  C    0.000000
     2  C    1.530906   0.000000
     3  C    2.560603   1.534004   0.000000
     4  C    3.930338   2.560603   1.530906   0.000000
     5  H    1.094986   2.184953   3.513523   4.739943   0.000000
     6  H    1.096373   2.181844   2.830049   4.256146   1.768503
     7  H    1.096373   2.181844   2.830049   4.256146   1.768503
     8  H    2.162515   1.098873   2.159827   2.782642   2.506246
     9  H    2.162515   1.098873   2.159827   2.782642   2.506246
    10  H    2.782642   2.159827   1.098873   2.162515   3.789036
    11  H    2.782642   2.159827   1.098873   2.162515   3.789036
    12  H    4.256146   2.830049   2.181844   1.096373   4.940416
    13  H    4.739943   3.513523   2.184953   1.094986   5.646641
    14  H    4.256146   2.830049   2.181844   1.096373   4.940416
                    6          7          8          9         10
     6  H    0.000000
     7  H    1.767586   0.000000
     8  H    2.529712   3.082292   0.000000
     9  H    3.082292   2.529712   1.754416   0.000000
    10  H    3.144739   2.605437   3.064569   2.512689   0.000000
    11  H    2.605437   3.144739   2.512689   3.064569   1.754416
    12  H    4.815192   4.479030   3.144739   2.605437   2.529712
    13  H    4.940416   4.940416   3.789036   3.789036   2.506246
    14  H    4.479030   4.815192   2.605437   3.144739   3.082292
                   11         12         13         14
    11  H    0.000000
    12  H    3.082292   0.000000
    13  H    2.506246   1.768503   0.000000
    14  H    2.529712   1.767586   1.768503   0.000000
 Stoichiometry    C4H10
 Framework group  C2H[SGH(C4H2),X(H8)]
 Deg. of freedom    11
 Full point group                 C2H     NOp   4
 Largest Abelian subgroup         C2H     NOp   4
 Largest concise Abelian subgroup C2H     NOp   4
                         Standard orientation:                         
 ---------------------------------------------------------------------
 Center     Atomic      Atomic             Coordinates (Angstroms)
 Number     Number       Type             X           Y           Z
 ---------------------------------------------------------------------
      1          6           0        0.704307    1.834623    0.000000
      2          6           0        0.704307    0.303717    0.000000
      3          6           0       -0.704307   -0.303717    0.000000
      4          6           0       -0.704307   -1.834623    0.000000
      5          1           0        1.722766    2.236787    0.000000
      6          1           0        0.190942    2.231360    0.883793
      7          1           0        0.190942    2.231360   -0.883793
      8          1           0        1.254723   -0.063802    0.877208
      9          1           0        1.254723   -0.063802   -0.877208
     10          1           0       -1.254723    0.063802   -0.877208
     11          1           0       -1.254723    0.063802    0.877208
     12          1           0       -0.190942   -2.231360   -0.883793
     13          1           0       -1.722766   -2.236787    0.000000
     14          1           0       -0.190942   -2.231360    0.883793
 ---------------------------------------------------------------------
 Rotational constants (GHZ):          23.4403724           3.5997033           3.3815228

 **********************************************************************

            Population analysis using the SCF Density.

 **********************************************************************

 Orbital symmetries:
       Occupied  (AG) (BU) (BU) (AG) (AG) (BU) (AG) (BU) (AU) (AG)
                 (BU) (BG) (BU) (AU) (AG) (BG) (AG)
       Virtual   (AG) (BU) (AU) (BU) (AG) (BU) (AG) (BG) (BG) (AU)
                 (BU) (AG) (BU) (BU) (AG) (AG) (BG) (AU) (BU) (AU)
                 (AG) (BU) (BU) (BG) (AG) (AU) (AG) (BU) (BG) (AG)
                 (AU) (BU) (BU) (AG) (BG) (AG) (AU) (BU) (BU) (AG)
                 (AG) (BU) (BG) (AU) (BG) (BU) (AG) (AG) (BU) (AG)
                 (BG) (AU) (BG) (AU) (BU) (AU) (BG) (AG) (AU) (BU)
                 (BG) (AU) (AG) (BG) (BU) (AG) (BU) (AU) (BU) (AG)
                 (AG) (BU) (BG) (BU) (AG) (AU) (AG) (BG) (BU) (AG)
                 (BU) (AG) (BG) (BU) (AU) (AG) (BU) (BG) (AU) (AG)
                 (BU) (AG) (BU)
 The electronic state is 1-AG.
 Alpha  occ. eigenvalues --  -10.17620 -10.17599 -10.17033 -10.17032  -0.78750
 Alpha  occ. eigenvalues --   -0.71845  -0.62580  -0.57119  -0.46210  -0.42047
 Alpha  occ. eigenvalues --   -0.41342  -0.40556  -0.36392  -0.34591  -0.32895
 Alpha  occ. eigenvalues --   -0.31803  -0.31743
 Alpha virt. eigenvalues --    0.09486   0.12070   0.13601   0.14599   0.17060
 Alpha virt. eigenvalues --    0.18372   0.18475   0.18758   0.19791   0.19833
 Alpha virt. eigenvalues --    0.24615   0.25678   0.26185   0.49455   0.50024
 Alpha virt. eigenvalues --    0.54533   0.54858   0.55068   0.61251   0.63532
[...]
     8   1     0.11  -0.01  -0.09     0.26  -0.14  -0.25     0.25  -0.16   0.42
     9   1     0.11  -0.01   0.09     0.26  -0.14   0.25     0.25  -0.16  -0.42
    10   1    -0.11   0.01   0.09     0.26  -0.14  -0.25    -0.25   0.16  -0.42
    11   1    -0.11   0.01  -0.09     0.26  -0.14   0.25    -0.25   0.16   0.42
    12   1    -0.34   0.13  -0.27     0.24  -0.10   0.19    -0.01   0.01   0.02
    13   1     0.12  -0.26  -0.00    -0.08   0.16   0.00     0.07   0.02  -0.00
    14   1    -0.34   0.13   0.27     0.24  -0.10  -0.19    -0.01   0.01  -0.02
                     28                     29                     30
                     ?L                     BU                     AG
 Frequencies --   3022.5301              3033.9753              3034.4195
 Red. masses --      1.0594                 1.0369                 1.0365
 Frc consts  --      5.7022                 5.6235                 5.6232
 IR Inten    --     45.8082                80.5483                 0.0000
  Atom  AN      X      Y      Z        X      Y      Z        X      Y      Z
     1   6     0.01  -0.01   0.00     0.00  -0.03  -0.00     0.01  -0.04  -0.00
     2   6    -0.04   0.03   0.00     0.01  -0.01   0.00    -0.00   0.00   0.00
     3   6    -0.04   0.03  -0.00     0.01  -0.01  -0.00     0.00  -0.00   0.00
     4   6     0.01  -0.01  -0.00     0.00  -0.03   0.00    -0.01   0.04  -0.00
     5   1     0.03   0.01   0.00     0.35   0.13  -0.00     0.33   0.12   0.00
     6   1    -0.06   0.05   0.11    -0.20   0.14   0.34    -0.21   0.15   0.36
     7   1    -0.06   0.05  -0.11    -0.20   0.14  -0.34    -0.21   0.15  -0.36
     8   1     0.24  -0.16   0.40    -0.06   0.04  -0.10     0.02  -0.02   0.04
     9   1     0.24  -0.16  -0.40    -0.06   0.04   0.10     0.02  -0.02  -0.04
    10   1     0.24  -0.16   0.40    -0.06   0.04  -0.10    -0.02   0.02  -0.04
    11   1     0.24  -0.16  -0.40    -0.06   0.04   0.10    -0.02   0.02   0.04
    12   1    -0.06   0.05   0.11    -0.20   0.14   0.34     0.21  -0.15  -0.36
    13   1     0.03   0.01  -0.00     0.35   0.13   0.00    -0.33  -0.12   0.00
    14   1    -0.06   0.05  -0.11    -0.20   0.14  -0.34     0.21  -0.15   0.36
                     31                     32                     33
                     ?D                     ?B                     ?D
 Frequencies --   3039.3119              3061.0305              3099.0937
 Red. masses --      1.1012                 1.1047                 1.1029
 Frc consts  --      5.9932                 6.0986                 6.2412
 IR Inten    --      0.0000                26.0548                 0.0000
  Atom  AN      X      Y      Z        X      Y      Z        X      Y      Z
     1   6     0.00  -0.00   0.01     0.00  -0.00   0.03     0.00  -0.00  -0.07
     2   6     0.00   0.00  -0.07    -0.00   0.00  -0.07     0.00  -0.00  -0.01
     3   6     0.00   0.00   0.07     0.00  -0.00  -0.07     0.00  -0.00   0.01
     4   6     0.00  -0.00  -0.01    -0.00   0.00   0.03     0.00  -0.00   0.07
     5   1     0.00   0.00   0.00     0.00   0.00   0.01    -0.00  -0.00  -0.02
     6   1     0.04  -0.03  -0.07     0.09  -0.07  -0.15    -0.25   0.18   0.41
     7   1    -0.04   0.03  -0.07    -0.09   0.07  -0.15     0.25  -0.18   0.41
     8   1     0.26  -0.17   0.41     0.25  -0.16   0.39     0.04  -0.03   0.07
     9   1    -0.26   0.17   0.41    -0.25   0.16   0.39    -0.04   0.03   0.07
    10   1    -0.26   0.17  -0.41     0.25  -0.16   0.39    -0.04   0.03  -0.07
    11   1     0.26  -0.17  -0.41    -0.25   0.16   0.39     0.04  -0.03  -0.07
    12   1    -0.04   0.03   0.07     0.09  -0.07  -0.15     0.25  -0.18  -0.41
    13   1     0.00   0.00  -0.00    -0.00  -0.00   0.01    -0.00  -0.00   0.02
    14   1     0.04  -0.03   0.07    -0.09   0.07  -0.15    -0.25   0.18  -0.41
                     34                     35                     36
                     ?B                     ?L                     ?L
 Frequencies --   3102.9386              3107.6804              3108.4263
 Red. masses --      1.1026                 1.1018                 1.1015
 Frc consts  --      6.2547                 6.2695                 6.2708
 IR Inten    --    117.5743                 0.0000                81.3304
  Atom  AN      X      Y      Z        X      Y      Z        X      Y      Z
     1   6    -0.00  -0.00  -0.06    -0.07  -0.00   0.00    -0.07  -0.00  -0.00
     2   6    -0.00   0.00  -0.03    -0.00   0.00   0.00    -0.00   0.00  -0.00
     3   6     0.00  -0.00  -0.03     0.00  -0.00   0.00    -0.00   0.00   0.00
     4   6     0.00   0.00  -0.06     0.07   0.00   0.00    -0.07  -0.00   0.00
     5   1     0.00   0.00  -0.01     0.60   0.23   0.00     0.59   0.23  -0.00
     6   1    -0.23   0.18   0.39     0.11  -0.09  -0.21     0.11  -0.10  -0.22
     7   1     0.23  -0.18   0.39     0.11  -0.09   0.21     0.11  -0.10   0.22
     8   1     0.10  -0.06   0.15     0.02  -0.01   0.03     0.03  -0.02   0.04
     9   1    -0.10   0.06   0.15     0.02  -0.01  -0.03     0.03  -0.02  -0.04
    10   1     0.10  -0.06   0.15    -0.02   0.01  -0.03     0.03  -0.02   0.04
    11   1    -0.10   0.06   0.15    -0.02   0.01   0.03     0.03  -0.02  -0.04
    12   1    -0.23   0.18   0.39    -0.11   0.09   0.21     0.11  -0.10  -0.22
    13   1    -0.00  -0.00  -0.01    -0.60  -0.23   0.00     0.59   0.23   0.00
    14   1     0.23  -0.18   0.39    -0.11   0.09  -0.21     0.11  -0.10   0.22

 -------------------
 - Thermochemistry -
 -------------------
 Temperature  3000.000 Kelvin.  Pressure   0.98700 Atm.
 Atom     1 has atomic number  6 and mass  12.00000
 Atom     2 has atomic number  6 and mass  12.00000
 Atom     3 has atomic number  6 and mass  12.00000
 Atom     4 has atomic number  6 and mass  12.00000
 Atom     5 has atomic number  1 and mass   1.00783
 Atom     6 has atomic number  1 and mass   1.00783
 Atom     7 has atomic number  1 and mass   1.00783
 Atom     8 has atomic number  1 and mass   1.00783
 Atom     9 has atomic number  1 and mass   1.00783
 Atom    10 has atomic number  1 and mass   1.00783
 Atom    11 has atomic number  1 and mass   1.00783
 Atom    12 has atomic number  1 and mass   1.00783
 Atom    13 has atomic number  1 and mass   1.00783
 Atom    14 has atomic number  1 and mass   1.00783
 Molecular mass:    58.07825 amu.
 Principal axes and moments of inertia in atomic units:
                           1         2         3
     Eigenvalues --    76.99286 501.35832 533.70664
           X            0.42014   0.90746   0.00000
           Y            0.90746  -0.42014   0.00000
           Z           -0.00000  -0.00000   1.00000
 This molecule is an asymmetric top.
 Rotational symmetry number  2.
 Rotational temperatures (Kelvin)      1.12496     0.17276     0.16229
 Rotational constants (GHZ):          23.44037     3.59970     3.38152
 Zero-point vibrational energy     347345.7 (Joules/Mol)
                                   83.01762 (Kcal/Mol)
 Warning -- explicit consideration of  36 degrees of freedom as
           vibrations may cause significant error
 Identified internal rotation modes:
   43   2   4
 Vibrational temperatures:    176.77   329.43   372.27   384.22   610.91
          (Kelvin)           1065.72  1172.95  1215.74  1390.47  1416.28
                             1472.21  1538.07  1689.72  1750.10  1865.08
                             1912.80  1925.24  2024.87  2052.83  2056.51
                             2159.58  2166.51  2177.90  2179.63  2187.75
                             2196.95  4337.88  4348.75  4365.21  4365.85
                             4372.89  4404.14  4458.90  4464.44  4471.26
                             4472.33
 
 Zero-point correction=                           0.132297 (Hartree/Particle)
 Thermal correction to Energy=                    0.393218
 Thermal correction to Enthalpy=                  0.402719
 Thermal correction to Gibbs Free Energy=        -0.504695
 Sum of electronic and zero-point Energies=           -158.339657
 Sum of electronic and thermal Energies=              -158.078736
 Sum of electronic and thermal Enthalpies=            -158.069235
 Sum of electronic and thermal Free Energies=         -158.976649
 
                     E (Thermal)             CV                S
                      KCal/Mol        Cal/Mol-Kelvin    Cal/Mol-Kelvin
 Total                  246.748             73.003            189.804
 Corrected for 
 internal rot.          241.988             70.236            188.307
 Electronic               0.000              0.000              0.000
 Translational            8.942              2.981             49.594
 Rotational               8.942              2.981             30.041
 Vibrational            228.863             67.041            110.169
 Vibration     1          5.963              1.987              7.614
 Vibration     2          5.968              1.985              6.378
 Vibration     3          5.969              1.985              6.135
 Vibration     4          5.970              1.984              6.073
 Vibration     5          5.982              1.980              5.153
 Vibration     6          6.024              1.966              4.054
 Vibration     7          6.037              1.962              3.866
 Vibration     8          6.043              1.960              3.796
 Vibration     9          6.068              1.952              3.533
 Vibration    10          6.072              1.951              3.497
 Vibration    11          6.081              1.948              3.422
 Vibration    12          6.092              1.944              3.336
 Vibration    13          6.118              1.935              3.154
 Vibration    14          6.130              1.932              3.086
 Vibration    15          6.152              1.924              2.963
 Vibration    16          6.162              1.921              2.915
 Vibration    17          6.165              1.920              2.902
 Vibration    18          6.186              1.913              2.806
 Vibration    19          6.192              1.911              2.779
 Vibration    20          6.193              1.911              2.776
 Vibration    21          6.217              1.904              2.683
 Vibration    22          6.218              1.903              2.677
 Vibration    23          6.221              1.902              2.667
 Vibration    24          6.222              1.902              2.665
 Vibration    25          6.224              1.901              2.658
 Vibration    26          6.226              1.901              2.650
 Vibration    27          6.966              1.674              1.419
 Vibration    28          6.971              1.673              1.415
 Vibration    29          6.978              1.671              1.408
 Vibration    30          6.978              1.671              1.408
 Vibration    31          6.982              1.670              1.405
 Vibration    32          6.996              1.666              1.394
 Vibration    33          7.021              1.658              1.373
 Vibration    34          7.023              1.658              1.371
 Vibration    35          7.026              1.657              1.368
 Vibration    36          7.027              1.657              1.368
                       Q            Log10(Q)             Ln(Q)
 Total Bot       0.117815D+24         23.071201         53.123403
 Corrected for 
 Internal rot.   0.123277D+24         23.090882         53.168720
 Total V=0       0.131495D+30         29.118909         67.048766
 Corrected for 
 Internal rot.   0.137591D+30         29.138590         67.094082
 Vib (Bot)       0.253824D+08          7.404532         17.049565
 Vib (Bot)    1  0.169683D+02          1.229639          2.831349
 Vib (Bot)    2  0.910210D+01          0.959141          2.208505
 Vib (Bot)    3  0.805351D+01          0.905985          2.086108
 Vib (Bot)    4  0.780274D+01          0.892247          2.054475
 Vib (Bot)    5  0.490221D+01          0.690392          1.589687
 Vib (Bot)    6  0.280025D+01          0.447196          1.029707
 Vib (Bot)    7  0.254143D+01          0.405078          0.932726
 Vib (Bot)    8  0.245082D+01          0.389311          0.896423
 Vib (Bot)    9  0.213835D+01          0.330079          0.760035
 Vib (Bot)   10  0.209868D+01          0.321946          0.741308
 Vib (Bot)   11  0.201745D+01          0.304803          0.701835
 Vib (Bot)   12  0.192930D+01          0.285400          0.657157
 Vib (Bot)   13  0.175219D+01          0.243581          0.560867
 Vib (Bot)   14  0.169012D+01          0.227918          0.524801
 Vib (Bot)   15  0.158289D+01          0.199451          0.459254
 Vib (Bot)   16  0.154213D+01          0.188121          0.433165
 Vib (Bot)   17  0.153183D+01          0.185210          0.426461
 Vib (Bot)   18  0.145382D+01          0.162512          0.374197
 Vib (Bot)   19  0.143327D+01          0.156327          0.359957
 Vib (Bot)   20  0.143061D+01          0.155521          0.358100
 Vib (Bot)   21  0.135961D+01          0.133415          0.307199
 Vib (Bot)   22  0.135507D+01          0.131963          0.303857
 Vib (Bot)   23  0.134768D+01          0.129588          0.298387
 Vib (Bot)   24  0.134657D+01          0.129228          0.297558
 Vib (Bot)   25  0.134135D+01          0.127542          0.293676
 Vib (Bot)   26  0.133549D+01          0.125640          0.289297
 Vib (Bot)   27  0.634815D+00         -0.197353         -0.454421
 Vib (Bot)   28  0.632962D+00         -0.198622         -0.457345
 Vib (Bot)   29  0.630169D+00         -0.200543         -0.461767
 Vib (Bot)   30  0.630061D+00         -0.200617         -0.461938
 Vib (Bot)   31  0.628874D+00         -0.201436         -0.463824
 Vib (Bot)   32  0.623647D+00         -0.205061         -0.472171
 Vib (Bot)   33  0.614652D+00         -0.211371         -0.486699
 Vib (Bot)   34  0.613755D+00         -0.212005         -0.488159
 Vib (Bot)   35  0.612652D+00         -0.212786         -0.489959
 Vib (Bot)   36  0.612478D+00         -0.212909         -0.490242
 Vib (V=0)       0.283296D+14         13.452240         30.974928
 Vib (V=0)    1  0.174757D+02          1.242434          2.860811
 Vib (V=0)    2  0.961582D+01          0.982986          2.263409
 Vib (V=0)    3  0.856902D+01          0.932931          2.148153
 Vib (V=0)    4  0.831874D+01          0.920058          2.118511
 Vib (V=0)    5  0.542765D+01          0.734612          1.691506
 Vib (V=0)    6  0.334453D+01          0.524336          1.207328
 Vib (V=0)    7  0.309015D+01          0.489979          1.128218
 Vib (V=0)    8  0.300130D+01          0.477310          1.099047
 Vib (V=0)    9  0.269603D+01          0.430725          0.991780
 Vib (V=0)   10  0.265742D+01          0.424460          0.977355
 Vib (V=0)   11  0.257849D+01          0.411365          0.947203
 Vib (V=0)   12  0.249304D+01          0.396729          0.913502
 Vib (V=0)   13  0.232213D+01          0.365887          0.842487
 Vib (V=0)   14  0.226253D+01          0.354595          0.816484
 Vib (V=0)   15  0.215998D+01          0.334451          0.770101
 Vib (V=0)   16  0.212116D+01          0.326574          0.751964
 Vib (V=0)   17  0.211136D+01          0.324563          0.747334
 Vib (V=0)   18  0.203740D+01          0.309077          0.711675
 Vib (V=0)   19  0.201798D+01          0.304916          0.702096
 Vib (V=0)   20  0.201547D+01          0.304376          0.700851
 Vib (V=0)   21  0.194863D+01          0.289730          0.667129
 Vib (V=0)   22  0.194438D+01          0.288781          0.664942
 Vib (V=0)   23  0.193745D+01          0.287230          0.661371
 Vib (V=0)   24  0.193640D+01          0.286995          0.660830
 Vib (V=0)   25  0.193151D+01          0.285897          0.658302
 Vib (V=0)   26  0.192602D+01          0.284660          0.655455
 Vib (V=0)   27  0.130808D+01          0.116634          0.268559
 Vib (V=0)   28  0.130662D+01          0.116150          0.267446
 Vib (V=0)   29  0.130443D+01          0.115422          0.265769
 Vib (V=0)   30  0.130435D+01          0.115394          0.265704
 Vib (V=0)   31  0.130342D+01          0.115084          0.264991
 Vib (V=0)   32  0.129933D+01          0.113721          0.261852
 Vib (V=0)   33  0.129234D+01          0.111376          0.256452
 Vib (V=0)   34  0.129164D+01          0.111142          0.255913
 Vib (V=0)   35  0.129079D+01          0.110854          0.255251
 Vib (V=0)   36  0.129065D+01          0.110809          0.255147
 Electronic      0.100000D+01          0.000000          0.000000
 Translational   0.566074D+10          9.752873         22.456820
 Rotational      0.819966D+06          5.913796         13.617018
 ***** Axes restored to original set *****
 -------------------------------------------------------------------
 Center     Atomic                   Forces (Hartrees/Bohr)
 Number     Number              X              Y              Z
 -------------------------------------------------------------------
      1        6           0.000369325    0.000250381    0.000000000
      2        6          -0.000381132   -0.000096022    0.000000000
      3        6           0.000381132    0.000096022    0.000000000
      4        6          -0.000369325   -0.000250381    0.000000000
      5        1          -0.000048344    0.000025549    0.000000000
      6        1          -0.000062060   -0.000117665   -0.000165732
      7        1          -0.000062060   -0.000117665    0.000165732
      8        1           0.000045037    0.000063748   -0.000082062
      9        1           0.000045037    0.000063748    0.000082062
     10        1          -0.000045037   -0.000063748    0.000082062
     11        1          -0.000045037   -0.000063748   -0.000082062
     12        1           0.000062060    0.000117665    0.000165732
     13        1           0.000048344   -0.000025549   -0.000000000
     14        1           0.000062060    0.000117665   -0.000165732
 -------------------------------------------------------------------
 Cartesian Forces:  Max     0.000381132 RMS     0.000150007
 FormGI is forming the generalized inverse of G from B-inverse, IUseBI=4.
 Dipole is zero, so no output in dipole orientation.

 ----------------------------------------------------------------------

 Electric dipole moment (input orientation):
 (Debye = 10**-18 statcoulomb cm , SI units = C m)
                  (au)            (Debye)         (10**-30 SI)
   Tot        0.000000D+00      0.000000D+00      0.000000D+00
   x          0.000000D+00      0.000000D+00      0.000000D+00
   y          0.000000D+00      0.000000D+00      0.000000D+00
   z          0.000000D+00      0.000000D+00      0.000000D+00

 Dipole polarizability, Alpha (input orientation).
 (esu units = cm**3 , SI units = C**2 m**2 J**-1)
 Alpha(0;0):
               (au)            (10**-24 esu)      (10**-40 SI)
   iso        0.448432D+02      0.664507D+01      0.739364D+01
   aniso      0.890741D+01      0.131994D+01      0.146863D+01
   xx         0.507518D+02      0.752064D+01      0.836784D+01
   yx        -0.124620D+00     -0.184668D-01     -0.205471D-01
   yy         0.423871D+02      0.628112D+01      0.698869D+01
   zx         0.000000D+00      0.000000D+00      0.000000D+00
   zy         0.000000D+00      0.000000D+00      0.000000D+00
   zz         0.413907D+02      0.613346D+01      0.682440D+01

 ----------------------------------------------------------------------

 This type of calculation cannot be archived.


 THE MORE ACCURATE THE CALCULATIONS BECOME, THE MORE THE CONCEPTS
 TEND TO VANISH INTO THIN AIR.
     -- R.S. MULLIKEN, J.C.P. 43,S2(1965)
 Job cpu time:       0 days  0 hours  0 minutes  0.7 seconds.
 Elapsed time:       0 days  0 hours  0 minutes  0.7 seconds.
 File lengths (MBytes):  RWF=      6 Int=      0 D2E=      0 Chk=      2 Scr=      1
 Normal termination of Gaussian 16 at Tue May  3 11:57:47 2022.
