 Entering Gaussian System, Link 0=g16
 Initial command:
 /software//g16/l1.exe "/home/tmp/g16/Gau-3560135.inp" -scrdir="/home/tmp/g16/"
 Entering Link 1 = /software//g16/l1.exe PID=   3560137.
  
 Copyright (c) 1988-2019, Gaussian, Inc.  All Rights Reserved.
  
 This is part of the Gaussian(R) 16 program.  It is based on
 the Gaussian(R) 09 system (copyright 2009, Gaussian, Inc.),
 the Gaussian(R) 03 system (copyright 2003, Gaussian, Inc.),
 the Gaussian(R) 98 system (copyright 1998, Gaussian, Inc.),
 the Gaussian(R) 94 system (copyright 1995, Gaussian, Inc.),
 the Gaussian 92(TM) system (copyright 1992, Gaussian, Inc.),
 the Gaussian 90(TM) system (copyright 1990, Gaussian, Inc.),
 the Gaussian 88(TM) system (copyright 1988, Gaussian, Inc.),
 the Gaussian 86(TM) system (copyright 1986, Carnegie Mellon
 University), and the Gaussian 82(TM) system (copyright 1983,
 Carnegie Mellon University). Gaussian is a federally registered
 trademark of Gaussian, Inc.
  
 This software contains proprietary and confidential information,
 including trade secrets, belonging to Gaussian, Inc.
  
 This software is provided under written license and may be
 used, copied, transmitted, or stored only in accord with that
 written license.
  
 The following legend is applicable only to US Government
 contracts under FAR:
  
                    RESTRICTED RIGHTS LEGEND
  
 Use, reproduction and disclosure by the US Government is
 subject to restrictions as set forth in subparagraphs (a)
 and (c) of the Commercial Computer Software - Restricted
 Rights clause in FAR 52.227-19.
  
 Gaussian, Inc.
 340 Quinnipiac St., Bldg. 40, Wallingford CT 06492
  
  
 ---------------------------------------------------------------
 Warning -- This program may not be used in any manner that
 competes with the business of Gaussian, Inc. or will provide
 assistance to any competitor of Gaussian, Inc.  The licensee
 of this program is prohibited from giving any competitor of
 Gaussian, Inc. access to this program.  By using this program,
 the user acknowledges that Gaussian, Inc. is engaged in the
 business of creating and licensing software in the field of
 computational chemistry and represents and warrants to the
 licensee that it is not a competitor of Gaussian, Inc. and that
 it will not use this program in any manner prohibited above.
 ---------------------------------------------------------------
  

 Cite this work as:
 Gaussian 16, Revision C.01,
 M. J. Frisch, G. W. Trucks, H. B. Schlegel, G. E. Scuseria, 
 M. A. Robb, J. R. Cheeseman, G. Scalmani, V. Barone, 
 G. A. Petersson, H. Nakatsuji, X. Li, M. Caricato, A. V. Marenich, 
 J. Bloino, B. G. Janesko, R. Gomperts, B. Mennucci, H. P. Hratchian, 
 J. V. Ortiz, A. F. Izmaylov, J. L. Sonnenberg, D. Williams-Young, 
 F. Ding, F. Lipparini, F. Egidi, J. Goings, B. Peng, A. Petrone, 
 T. Henderson, D. Ranasinghe, V. G. Zakrzewski, J. Gao, N. Rega, 
 G. Zheng, W. Liang, M. Hada, M. Ehara, K. Toyota, R. Fukuda, 
 J. Hasegawa, M. Ishida, T. Nakajima, Y. Honda, O. Kitao, H. Nakai, 
 T. Vreven, K. Throssell, J. A. Montgomery, Jr., J. E. Peralta, 
 F. Ogliaro, M. J. Bearpark, J. J. Heyd, E. N. Brothers, K. N. Kudin, 
 V. N. Staroverov, T. A. Keith, R. Kobayashi, J. Normand, 
 K. Raghavachari, A. P. Rendell, J. C. Burant, S. S. Iyengar, 
 J. Tomasi, M. Cossi, J. M. Millam, M. Klene, C. Adamo, R. Cammi, 
 J. W. Ochterski, R. L. Martin, K. Morokuma, O. Farkas, 
 J. B. Foresman, and D. J. Fox, Gaussian, Inc., Wallingford CT, 2019.
 
 ******************************************
 Gaussian 16:  ES64L-G16RevC.01  3-Jul-2019
                 7-Nov-2022 
 ******************************************
 %nprocshared=8
 Will use up to    8 processors via shared memory.
 %chk=cis-C=CC=C.chk
 ----------------------------------------------------------------------
 # opt freq=hinderedrotor B3LYP/6-31g(d,p) symm=veryloose press=0.987 i
 nt=superfine
 ----------------------------------------------------------------------
 1/18=20,19=15,26=5,38=1,113=-987000/1,3;
 2/9=110,12=2,17=2,18=2,40=1/2;
 3/5=1,6=6,7=101,11=2,25=1,30=1,71=1,74=-5,75=-7/1,2,3;
 4//1;
 5/5=2,38=5/2;
 6/7=2,8=2,9=2,10=2,28=1/1;
 7//1,2,3,16;
 1/18=20,19=15,26=5/3(2);
 2/9=110/2;
 99//99;
 2/9=110/2;
 3/5=1,6=6,7=101,11=2,25=1,30=1,71=1,74=-5,75=-7/1,2,3;
 4/5=5,16=3,69=1/1;
 5/5=2,38=5/2;
 7//1,2,3,16;
 1/18=20,19=15,26=5/3(-5);
 2/9=110/2;
 6/7=2,8=2,9=2,10=2,19=2,28=1/1;
 99/9=1/99;
 ------------
 cis-C=CC=C_1
 ------------
 Symbolic Z-matrix:
 Charge =  0 Multiplicity = 1
 C                     0.027    -1.54623  -0.50323 
 C                    -0.042    -0.73557   0.563 
 C                     0.042     0.73557   0.563 
 C                    -0.027     1.54623  -0.50323 
 H                    -0.057    -2.62504  -0.38708 
 H                     0.177    -1.1695   -1.52233 
 H                    -0.165    -1.19402   1.5508 
 H                     0.165     1.19402   1.5508 
 H                     0.057     2.62504  -0.38708 
 H                    -0.177     1.1695   -1.52233 
 

 GradGradGradGradGradGradGradGradGradGradGradGradGradGradGradGradGradGrad
 Berny optimization.
 Initialization pass.
                           ----------------------------
                           !    Initial Parameters    !
                           ! (Angstroms and Degrees)  !
 --------------------------                            --------------------------
 ! Name  Definition              Value          Derivative Info.                !
 --------------------------------------------------------------------------------
 ! R1    R(1,2)                  1.3412         estimate D2E/DX2                !
 ! R2    R(1,5)                  1.0883         estimate D2E/DX2                !
 ! R3    R(1,6)                  1.0968         estimate D2E/DX2                !
 ! R4    R(2,3)                  1.4735         estimate D2E/DX2                !
 ! R5    R(2,7)                  1.0959         estimate D2E/DX2                !
 ! R6    R(3,4)                  1.3412         estimate D2E/DX2                !
 ! R7    R(3,8)                  1.0959         estimate D2E/DX2                !
 ! R8    R(4,9)                  1.0883         estimate D2E/DX2                !
 ! R9    R(4,10)                 1.0968         estimate D2E/DX2                !
 ! A1    A(2,1,5)              120.6868         estimate D2E/DX2                !
 ! A2    A(2,1,6)              122.5535         estimate D2E/DX2                !
 ! A3    A(5,1,6)              116.7577         estimate D2E/DX2                !
 ! A4    A(1,2,3)              126.9071         estimate D2E/DX2                !
 ! A5    A(1,2,7)              118.0008         estimate D2E/DX2                !
 ! A6    A(3,2,7)              115.0897         estimate D2E/DX2                !
 ! A7    A(2,3,4)              126.9071         estimate D2E/DX2                !
 ! A8    A(2,3,8)              115.0897         estimate D2E/DX2                !
 ! A9    A(4,3,8)              118.0008         estimate D2E/DX2                !
 ! A10   A(3,4,9)              120.6868         estimate D2E/DX2                !
 ! A11   A(3,4,10)             122.5535         estimate D2E/DX2                !
 ! A12   A(9,4,10)             116.7577         estimate D2E/DX2                !
 ! D1    D(5,1,2,3)           -179.4019         estimate D2E/DX2                !
 ! D2    D(5,1,2,7)              1.1849         estimate D2E/DX2                !
 ! D3    D(6,1,2,3)              1.1257         estimate D2E/DX2                !
 ! D4    D(6,1,2,7)           -178.2875         estimate D2E/DX2                !
 ! D5    D(1,2,3,4)             12.3225         estimate D2E/DX2                !
 ! D6    D(1,2,3,8)           -168.2496         estimate D2E/DX2                !
 ! D7    D(7,2,3,4)           -168.2496         estimate D2E/DX2                !
 ! D8    D(7,2,3,8)             11.1783         estimate D2E/DX2                !
 ! D9    D(2,3,4,9)           -179.4019         estimate D2E/DX2                !
 ! D10   D(2,3,4,10)             1.1257         estimate D2E/DX2                !
 ! D11   D(8,3,4,9)              1.1849         estimate D2E/DX2                !
 ! D12   D(8,3,4,10)          -178.2875         estimate D2E/DX2                !
 --------------------------------------------------------------------------------
 Trust Radius=3.00D-01 FncErr=1.00D-07 GrdErr=1.00D-07 EigMax=2.50D+02 EigMin=1.00D-04
 Number of steps in this run=     43 maximum allowed number of steps=    100.
 GradGradGradGradGradGradGradGradGradGradGradGradGradGradGradGradGradGrad

                          Input orientation:                          
 ---------------------------------------------------------------------
 Center     Atomic      Atomic             Coordinates (Angstroms)
 Number     Number       Type             X           Y           Z
 ---------------------------------------------------------------------
      1          6           0        0.027000   -1.546231   -0.503234
      2          6           0       -0.042000   -0.735569    0.563001
      3          6           0        0.042000    0.735569    0.563001
      4          6           0       -0.027000    1.546231   -0.503234
      5          1           0       -0.057000   -2.625036   -0.387076
      6          1           0        0.177000   -1.169496   -1.522330
      7          1           0       -0.165000   -1.194016    1.550802
      8          1           0        0.165000    1.194016    1.550802
      9          1           0        0.057000    2.625036   -0.387076
     10          1           0       -0.177000    1.169496   -1.522330
 ---------------------------------------------------------------------
                    Distance matrix (angstroms):
                    1          2          3          4          5
     1  C    0.000000
     2  C    1.341190   0.000000
     3  C    2.518669   1.473534   0.000000
     4  C    3.092933   2.518669   1.341190   0.000000
     5  H    1.088287   2.114937   3.493725   4.172992   0.000000
     6  H    1.096807   2.141228   2.827738   2.907808   1.860687
     7  H    2.092841   1.095926   2.177590   3.427399   2.411401
     8  H    3.427399   2.177590   1.095926   2.092841   4.288335
     9  H    4.172992   3.493725   2.114937   1.088287   5.251310
    10  H    2.907808   2.827738   2.141228   1.096807   3.962534
                    6          7          8          9         10
     6  H    0.000000
     7  H    3.092201   0.000000
     8  H    3.876915   2.410725   0.000000
     9  H    3.962534   4.288335   2.411401   0.000000
    10  H    2.365629   3.876915   3.092201   1.860687   0.000000
 Stoichiometry    C4H6
 Framework group  C2[X(C4H6)]
 Deg. of freedom    13
 Full point group                 C2      NOp   2
 Largest Abelian subgroup         C2      NOp   2
 Largest concise Abelian subgroup C2      NOp   2
                         Standard orientation:                         
 ---------------------------------------------------------------------
 Center     Atomic      Atomic             Coordinates (Angstroms)
 Number     Number       Type             X           Y           Z
 ---------------------------------------------------------------------
      1          6           0        0.104232    1.542950   -0.503234
      2          6           0        0.104232    0.729357    0.563001
      3          6           0       -0.104232   -0.729357    0.563001
      4          6           0       -0.104232   -1.542950   -0.503234
      5          1           0        0.279421    2.610744   -0.387076
      6          1           0       -0.077179    1.180294   -1.522330
      7          1           0        0.265669    1.175721    1.550802
      8          1           0       -0.265669   -1.175721    1.550802
      9          1           0       -0.279421   -2.610744   -0.387076
     10          1           0        0.077179   -1.180294   -1.522330
 ---------------------------------------------------------------------
 Rotational constants (GHZ):          21.3410817           5.6109712           4.4573113
 Standard basis: 6-31G(d,p) (6D, 7F)
 There are    45 symmetry adapted cartesian basis functions of A   symmetry.
 There are    45 symmetry adapted cartesian basis functions of B   symmetry.
 There are    45 symmetry adapted basis functions of A   symmetry.
 There are    45 symmetry adapted basis functions of B   symmetry.
    90 basis functions,   154 primitive gaussians,    90 cartesian basis functions
    15 alpha electrons       15 beta electrons
       nuclear repulsion energy       104.2629592006 Hartrees.
 NAtoms=   10 NActive=   10 NUniq=    5 SFac= 4.00D+00 NAtFMM=   60 NAOKFM=F Big=F
 Integral buffers will be    131072 words long.
 Raffenetti 2 integral format.
 Two-electron integral symmetry is turned on.
 One-electron integrals computed using PRISM.
 NBasis=    90 RedAO= T EigKep=  2.85D-03  NBF=    45    45
 NBsUse=    90 1.00D-06 EigRej= -1.00D+00 NBFU=    45    45
 ExpMin= 1.61D-01 ExpMax= 3.05D+03 ExpMxC= 4.57D+02 IAcc=3 IRadAn=         7 AccDes= 0.00D+00
 Harris functional with IExCor=  402 and IRadAn=       7 diagonalized for initial guess.
 HarFok:  IExCor=  402 AccDes= 0.00D+00 IRadAn=         7 IDoV= 1 UseB2=F ITyADJ=14
 ICtDFT=  3500011 ScaDFX=  1.000000  1.000000  1.000000  1.000000
 FoFCou: FMM=F IPFlag=           0 FMFlag=      100000 FMFlg1=           0
         NFxFlg=           0 DoJE=T BraDBF=F KetDBF=T FulRan=T
         wScrn=  0.000000 ICntrl=       500 IOpCl=  0 I1Cent=   200000004 NGrid=           0
         NMat0=    1 NMatS0=      1 NMatT0=    0 NMatD0=    1 NMtDS0=    0 NMtDT0=    0
 Petite list used in FoFCou.
 Initial guess orbital symmetries:
       Occupied  (B) (A) (A) (B) (A) (B) (A) (B) (A) (A) (B) (B)
                 (A) (B) (A)
       Virtual   (B) (A) (A) (A) (B) (B) (B) (A) (A) (B) (B) (A)
                 (B) (A) (B) (A) (A) (B) (A) (B) (A) (A) (B) (B)
                 (A) (A) (B) (B) (B) (A) (B) (A) (B) (B) (A) (A)
                 (B) (B) (A) (A) (A) (B) (B) (A) (A) (B) (A) (B)
                 (B) (A) (A) (B) (B) (A) (B) (A) (B) (B) (A) (A)
                 (A) (B) (B) (A) (B) (A) (B) (A) (B) (A) (B) (A)
                 (B) (A) (B)
 The electronic state of the initial guess is 1-A.
 Keep R1 ints in memory in symmetry-blocked form, NReq=15742186.
 Requested convergence on RMS density matrix=1.00D-08 within 128 cycles.
 Requested convergence on MAX density matrix=1.00D-06.
 Requested convergence on             energy=1.00D-06.
 No special actions if energy rises.
 Integral accuracy reduced to 1.0D-05 until final iterations.
 Initial convergence to 1.0D-05 achieved.  Increase integral accuracy.
 SCF Done:  E(RB3LYP) =  -155.995430174     A.U. after   11 cycles
            NFock= 11  Conv=0.67D-08     -V/T= 2.0107

 **********************************************************************

            Population analysis using the SCF Density.

 **********************************************************************

 Orbital symmetries:
       Occupied  (A) (B) (B) (A) (A) (B) (A) (B) (A) (A) (B) (B)
                 (A) (B) (A)
       Virtual   (B) (A) (A) (A) (B) (B) (B) (A) (A) (B) (B) (A)
                 (B) (A) (B) (A) (A) (B) (A) (B) (A) (A) (B) (B)
                 (A) (A) (B) (B) (B) (A) (B) (A) (B) (B) (A) (A)
                 (B) (B) (A) (A) (A) (B) (B) (A) (A) (B) (A) (B)
                 (B) (A) (A) (B) (B) (A) (B) (B) (A) (B) (A) (A)
                 (A) (B) (B) (A) (B) (A) (B) (A) (B) (A) (B) (A)
                 (B) (A) (B)
 The electronic state is 1-A.
 Alpha  occ. eigenvalues --  -10.19354 -10.19324 -10.18458 -10.18458  -0.79771
 Alpha  occ. eigenvalues --   -0.72389  -0.61579  -0.52395  -0.48563  -0.43443
 Alpha  occ. eigenvalues --   -0.41511  -0.35936  -0.34598  -0.31531  -0.22863
 Alpha virt. eigenvalues --   -0.03018   0.09007   0.10159   0.11397   0.15180
 Alpha virt. eigenvalues --    0.18724   0.19646   0.21012   0.30471   0.33790
 Alpha virt. eigenvalues --    0.42376   0.46314   0.52939   0.53024   0.58126
 Alpha virt. eigenvalues --    0.59346   0.62738   0.64246   0.67682   0.68793
 Alpha virt. eigenvalues --    0.69028   0.81058   0.83436   0.85203   0.86926
 Alpha virt. eigenvalues --    0.90871   0.94797   0.95783   1.02495   1.07494
 Alpha virt. eigenvalues --    1.17439   1.22665   1.29422   1.35945   1.41890
 Alpha virt. eigenvalues --    1.46670   1.47263   1.51840   1.74441   1.83190
 Alpha virt. eigenvalues --    1.89780   1.91311   1.94233   1.95426   2.01566
 Alpha virt. eigenvalues --    2.06033   2.07630   2.12243   2.20084   2.27941
 Alpha virt. eigenvalues --    2.37877   2.38031   2.40799   2.43620   2.49031
 Alpha virt. eigenvalues --    2.50831   2.50942   2.59666   2.65561   2.68051
 Alpha virt. eigenvalues --    2.69536   2.78865   2.88378   2.91452   3.12248
 Alpha virt. eigenvalues --    3.22261   3.27673   3.35520   3.46980   3.53756
 Alpha virt. eigenvalues --    3.78229   4.12074   4.24014   4.36771   4.64207
          Condensed to atoms (all electrons):
               1          2          3          4          5          6
     1  C    4.942424   0.650638  -0.044644  -0.018803   0.373148   0.376800
     2  C    0.650638   4.731652   0.437354  -0.044644  -0.020818  -0.031185
     3  C   -0.044644   0.437354   4.731652   0.650638   0.004729  -0.012335
     4  C   -0.018803  -0.044644   0.650638   4.942424   0.000082   0.004741
     5  H    0.373148  -0.020818   0.004729   0.000082   0.594907  -0.043926
     6  H    0.376800  -0.031185  -0.012335   0.004741  -0.043926   0.600105
     7  H   -0.053960   0.373592  -0.041753   0.006052  -0.009233   0.005960
     8  H    0.006052  -0.041753   0.373592  -0.053960  -0.000174   0.000041
     9  H    0.000082   0.004729  -0.020818   0.373148   0.000001  -0.000105
    10  H    0.004741  -0.012335  -0.031185   0.376800  -0.000105   0.002622
               7          8          9         10
     1  C   -0.053960   0.006052   0.000082   0.004741
     2  C    0.373592  -0.041753   0.004729  -0.012335
     3  C   -0.041753   0.373592  -0.020818  -0.031185
     4  C    0.006052  -0.053960   0.373148   0.376800
     5  H   -0.009233  -0.000174   0.000001  -0.000105
     6  H    0.005960   0.000041  -0.000105   0.002622
     7  H    0.641201  -0.006762  -0.000174   0.000041
     8  H   -0.006762   0.641201  -0.009233   0.005960
     9  H   -0.000174  -0.009233   0.594907  -0.043926
    10  H    0.000041   0.005960  -0.043926   0.600105
 Mulliken charges:
               1
     1  C   -0.236478
     2  C   -0.047230
     3  C   -0.047230
     4  C   -0.236478
     5  H    0.101389
     6  H    0.097284
     7  H    0.085036
     8  H    0.085036
     9  H    0.101389
    10  H    0.097284
 Sum of Mulliken charges =   0.00000
 Mulliken charges with hydrogens summed into heavy atoms:
               1
     1  C   -0.037805
     2  C    0.037805
     3  C    0.037805
     4  C   -0.037805
 Electronic spatial extent (au):  <R**2>=            309.0196
 Charge=              0.0000 electrons
 Dipole moment (field-independent basis, Debye):
    X=             -0.0000    Y=              0.0000    Z=              0.0894  Tot=              0.0894
 Quadrupole moment (field-independent basis, Debye-Ang):
   XX=            -27.7227   YY=            -22.9228   ZZ=            -22.5672
   XY=              0.7139   XZ=             -0.0000   YZ=              0.0000
 Traceless Quadrupole moment (field-independent basis, Debye-Ang):
   XX=             -3.3184   YY=              1.4814   ZZ=              1.8370
   XY=              0.7139   XZ=             -0.0000   YZ=              0.0000
 Octapole moment (field-independent basis, Debye-Ang**2):
  XXX=              0.0000  YYY=              0.0000  ZZZ=              0.3219  XYY=              0.0000
  XXY=             -0.0000  XXZ=              0.3000  XZZ=              0.0000  YZZ=             -0.0000
  YYZ=              0.0366  XYZ=              0.6492
 Hexadecapole moment (field-independent basis, Debye-Ang**3):
 XXXX=            -31.7502 YYYY=           -264.8922 ZZZZ=            -95.9082 XXXY=            -12.6303
 XXXZ=             -0.0000 YYYX=             -5.4671 YYYZ=              0.0000 ZZZX=             -0.0000
 ZZZY=              0.0000 XXYY=            -58.3178 XXZZ=            -23.4033 YYZZ=            -64.1302
 XXYZ=              0.0000 YYXZ=             -0.0000 ZZXY=             -3.5274
 N-N= 1.042629592006D+02 E-N=-5.689598469771D+02  KE= 1.543388443127D+02
 Symmetry A    KE= 7.837779850925D+01
 Symmetry B    KE= 7.596104580346D+01
 Calling FoFJK, ICntrl=      2127 FMM=F ISym2X=1 I1Cent= 0 IOpClX= 0 NMat=1 NMatS=1 NMatT=0.
 ***** Axes restored to original set *****
 -------------------------------------------------------------------
 Center     Atomic                   Forces (Hartrees/Bohr)
 Number     Number              X              Y              Z
 -------------------------------------------------------------------
      1        6           0.000907192    0.000988777   -0.002927633
      2        6          -0.000543670   -0.000613480    0.001517241
      3        6           0.000543670    0.000613480    0.001517241
      4        6          -0.000907192   -0.000988777   -0.002927633
      5        1           0.000159540    0.002097326   -0.001094095
      6        1          -0.000859139   -0.002379450    0.006570870
      7        1           0.000315647    0.001851340   -0.004066383
      8        1          -0.000315647   -0.001851340   -0.004066383
      9        1          -0.000159540   -0.002097326   -0.001094095
     10        1           0.000859139    0.002379450    0.006570870
 -------------------------------------------------------------------
 Cartesian Forces:  Max     0.006570870 RMS     0.002430442

 GradGradGradGradGradGradGradGradGradGradGradGradGradGradGradGradGradGrad
 Berny optimization.
 FormGI is forming the generalized inverse of G from B-inverse, IUseBI=4.
 Internal  Forces:  Max     0.007040108 RMS     0.002269648
 Search for a local minimum.
 Step number   1 out of a maximum of   43
 All quantities printed in internal units (Hartrees-Bohrs-Radians)
 Mixed Optimization -- RFO/linear search
 Second derivative matrix not updated -- first step.
 ITU=  0
     Eigenvalues ---    0.01116   0.02014   0.02014   0.02867   0.02867
     Eigenvalues ---    0.02867   0.02867   0.16000   0.16000   0.16000
     Eigenvalues ---    0.16000   0.16000   0.16000   0.22000   0.22000
     Eigenvalues ---    0.34038   0.34038   0.34137   0.34137   0.35011
     Eigenvalues ---    0.35011   0.35321   0.56939   0.56939
 RFO step:  Lambda=-5.47189742D-04 EMin= 1.11603943D-02
 Linear search not attempted -- first point.
 Iteration  1 RMS(Cart)=  0.01969757 RMS(Int)=  0.00017453
 Iteration  2 RMS(Cart)=  0.00026595 RMS(Int)=  0.00000134
 Iteration  3 RMS(Cart)=  0.00000004 RMS(Int)=  0.00000134
 ClnCor:  largest displacement from symmetrization is 6.00D-13 for atom    10.
 Variable       Old X    -DE/DX   Delta X   Delta X   Delta X     New X
                                 (Linear)    (Quad)   (Total)
    R1        2.53448  -0.00244   0.00000  -0.00429  -0.00429   2.53020
    R2        2.05656  -0.00221   0.00000  -0.00630  -0.00630   2.05027
    R3        2.07267  -0.00704   0.00000  -0.02065  -0.02065   2.05202
    R4        2.78458  -0.00194   0.00000  -0.00548  -0.00548   2.77909
    R5        2.07100  -0.00448   0.00000  -0.01309  -0.01309   2.05791
    R6        2.53448  -0.00244   0.00000  -0.00429  -0.00429   2.53020
    R7        2.07100  -0.00448   0.00000  -0.01309  -0.01309   2.05791
    R8        2.05656  -0.00221   0.00000  -0.00630  -0.00630   2.05027
    R9        2.07267  -0.00704   0.00000  -0.02065  -0.02065   2.05202
    A1        2.10638   0.00121   0.00000   0.00753   0.00753   2.11391
    A2        2.13896  -0.00066   0.00000  -0.00408  -0.00408   2.13488
    A3        2.03781  -0.00055   0.00000  -0.00345  -0.00345   2.03436
    A4        2.21495   0.00032   0.00000   0.00143   0.00143   2.21638
    A5        2.05950  -0.00020   0.00000  -0.00097  -0.00097   2.05853
    A6        2.00869  -0.00012   0.00000  -0.00050  -0.00051   2.00819
    A7        2.21495   0.00032   0.00000   0.00143   0.00143   2.21638
    A8        2.00869  -0.00012   0.00000  -0.00050  -0.00051   2.00819
    A9        2.05950  -0.00020   0.00000  -0.00097  -0.00097   2.05853
   A10        2.10638   0.00121   0.00000   0.00753   0.00753   2.11391
   A11        2.13896  -0.00066   0.00000  -0.00408  -0.00408   2.13488
   A12        2.03781  -0.00055   0.00000  -0.00345  -0.00345   2.03436
    D1       -3.13115   0.00004   0.00000   0.00072   0.00072  -3.13044
    D2        0.02068   0.00014   0.00000   0.00562   0.00562   0.02630
    D3        0.01965   0.00004   0.00000   0.00057   0.00057   0.02022
    D4       -3.11170   0.00014   0.00000   0.00547   0.00547  -3.10623
    D5        0.21507   0.00047   0.00000   0.03643   0.03643   0.25150
    D6       -2.93651   0.00037   0.00000   0.03165   0.03165  -2.90486
    D7       -2.93651   0.00037   0.00000   0.03165   0.03165  -2.90486
    D8        0.19510   0.00027   0.00000   0.02687   0.02687   0.22197
    D9       -3.13115   0.00004   0.00000   0.00072   0.00072  -3.13044
   D10        0.01965   0.00004   0.00000   0.00057   0.00057   0.02022
   D11        0.02068   0.00014   0.00000   0.00562   0.00562   0.02630
   D12       -3.11170   0.00014   0.00000   0.00547   0.00547  -3.10623
         Item               Value     Threshold  Converged?
 Maximum Force            0.007040     0.000450     NO 
 RMS     Force            0.002270     0.000300     NO 
 Maximum Displacement     0.051188     0.001800     NO 
 RMS     Displacement     0.019634     0.001200     NO 
 Predicted change in Energy=-2.751541D-04
 GradGradGradGradGradGradGradGradGradGradGradGradGradGradGradGradGradGrad

                          Input orientation:                          
 ---------------------------------------------------------------------
 Center     Atomic      Atomic             Coordinates (Angstroms)
 Number     Number       Type             X           Y           Z
 ---------------------------------------------------------------------
      1          6           0        0.033665   -1.546353   -0.500935
      2          6           0       -0.047807   -0.733760    0.560087
      3          6           0        0.047807    0.733760    0.560087
      4          6           0       -0.033665    1.546353   -0.500935
      5          1           0       -0.060645   -2.621715   -0.392175
      6          1           0        0.204088   -1.173112   -1.506311
      7          1           0       -0.186825   -1.186959    1.540498
      8          1           0        0.186825    1.186959    1.540498
      9          1           0        0.060645    2.621715   -0.392175
     10          1           0       -0.204088    1.173112   -1.506311
 ---------------------------------------------------------------------
                    Distance matrix (angstroms):
                    1          2          3          4          5
     1  C    0.000000
     2  C    1.338922   0.000000
     3  C    2.514932   1.470632   0.000000
     4  C    3.093439   2.514932   1.338922   0.000000
     5  H    1.084955   2.114555   3.489668   4.169575   0.000000
     6  H    1.085880   2.127553   2.816130   2.909089   1.846574
     7  H    2.084521   1.089000   2.169198   3.414952   2.410326
     8  H    3.414952   2.169198   1.089000   2.084521   4.278138
     9  H    4.169575   3.489668   2.114555   1.084955   5.244834
    10  H    2.909089   2.816130   2.127553   1.085880   3.957599
                    6          7          8          9         10
     6  H    0.000000
     7  H    3.071815   0.000000
     8  H    3.853995   2.403143   0.000000
     9  H    3.957599   4.278138   2.410326   0.000000
    10  H    2.381465   3.853995   3.071815   1.846574   0.000000
 Stoichiometry    C4H6
 Framework group  C2[X(C4H6)]
 Deg. of freedom    13
 Full point group                 C2      NOp   2
 Largest Abelian subgroup         C2      NOp   2
 Largest concise Abelian subgroup C2      NOp   2
                         Standard orientation:                         
 ---------------------------------------------------------------------
 Center     Atomic      Atomic             Coordinates (Angstroms)
 Number     Number       Type             X           Y           Z
 ---------------------------------------------------------------------
      1          6           0        0.120770    1.541997   -0.500730
      2          6           0        0.120770    0.725330    0.560292
      3          6           0       -0.120770   -0.725330    0.560292
      4          6           0       -0.120770   -1.541997   -0.500730
      5          1           0        0.321888    2.602587   -0.391970
      6          1           0       -0.086038    1.187620   -1.506106
      7          1           0        0.304305    1.162399    1.540703
      8          1           0       -0.304305   -1.162399    1.540703
      9          1           0       -0.321888   -2.602587   -0.391970
     10          1           0        0.086038   -1.187620   -1.506106
 ---------------------------------------------------------------------
 Rotational constants (GHZ):          21.5489075           5.6139171           4.4728569
 Standard basis: 6-31G(d,p) (6D, 7F)
 There are    45 symmetry adapted cartesian basis functions of A   symmetry.
 There are    45 symmetry adapted cartesian basis functions of B   symmetry.
 There are    45 symmetry adapted basis functions of A   symmetry.
 There are    45 symmetry adapted basis functions of B   symmetry.
    90 basis functions,   154 primitive gaussians,    90 cartesian basis functions
    15 alpha electrons       15 beta electrons
       nuclear repulsion energy       104.5411999761 Hartrees.
 NAtoms=   10 NActive=   10 NUniq=    5 SFac= 4.00D+00 NAtFMM=   60 NAOKFM=F Big=F
 Integral buffers will be    131072 words long.
 Raffenetti 2 integral format.
 Two-electron integral symmetry is turned on.
 One-electron integrals computed using PRISM.
 NBasis=    90 RedAO= T EigKep=  2.84D-03  NBF=    45    45
 NBsUse=    90 1.00D-06 EigRej= -1.00D+00 NBFU=    45    45
 Initial guess from the checkpoint file:  "cis-C=CC=C.chk"
 B after Tr=    -0.000000   -0.000000   -0.000000
         Rot=    0.999976    0.000000    0.000000    0.006964 Ang=   0.80 deg.
 Initial guess orbital symmetries:
       Occupied  (A) (B) (B) (A) (A) (B) (A) (B) (A) (A) (B) (B)
                 (A) (B) (A)
       Virtual   (B) (A) (A) (A) (B) (B) (B) (A) (A) (B) (B) (A)
                 (B) (A) (B) (A) (A) (B) (A) (B) (A) (A) (B) (B)
                 (A) (A) (B) (B) (B) (A) (B) (A) (B) (B) (A) (A)
                 (B) (B) (A) (A) (A) (B) (B) (A) (A) (B) (A) (B)
                 (B) (A) (A) (B) (B) (A) (B) (B) (A) (B) (A) (A)
                 (A) (B) (B) (A) (B) (A) (B) (A) (B) (A) (B) (A)
                 (B) (A) (B)
 ExpMin= 1.61D-01 ExpMax= 3.05D+03 ExpMxC= 4.57D+02 IAcc=3 IRadAn=         7 AccDes= 0.00D+00
 Harris functional with IExCor=  402 and IRadAn=       7 diagonalized for initial guess.
 HarFok:  IExCor=  402 AccDes= 0.00D+00 IRadAn=         7 IDoV= 1 UseB2=F ITyADJ=14
 ICtDFT=  3500011 ScaDFX=  1.000000  1.000000  1.000000  1.000000
 FoFCou: FMM=F IPFlag=           0 FMFlag=      100000 FMFlg1=           0
         NFxFlg=           0 DoJE=T BraDBF=F KetDBF=T FulRan=T
         wScrn=  0.000000 ICntrl=       500 IOpCl=  0 I1Cent=   200000004 NGrid=           0
         NMat0=    1 NMatS0=      1 NMatT0=    0 NMatD0=    1 NMtDS0=    0 NMtDT0=    0
 Petite list used in FoFCou.
 Keep R1 ints in memory in symmetry-blocked form, NReq=15742186.
 Requested convergence on RMS density matrix=1.00D-08 within 128 cycles.
 Requested convergence on MAX density matrix=1.00D-06.
 Requested convergence on             energy=1.00D-06.
 No special actions if energy rises.
 Integral accuracy reduced to 1.0D-05 until final iterations.
 Initial convergence to 1.0D-05 achieved.  Increase integral accuracy.
 SCF Done:  E(RB3LYP) =  -155.995719250     A.U. after   10 cycles
            NFock= 10  Conv=0.91D-08     -V/T= 2.0102
 Calling FoFJK, ICntrl=      2127 FMM=F ISym2X=1 I1Cent= 0 IOpClX= 0 NMat=1 NMatS=1 NMatT=0.
 ***** Axes restored to original set *****
 -------------------------------------------------------------------
 Center     Atomic                   Forces (Hartrees/Bohr)
 Number     Number              X              Y              Z
 -------------------------------------------------------------------
      1        6           0.000313745   -0.000148954    0.000074726
      2        6          -0.000192193    0.000242336    0.000176878
      3        6           0.000192193   -0.000242336    0.000176878
      4        6          -0.000313745    0.000148954    0.000074726
      5        1          -0.000066802   -0.000087647   -0.000090374
      6        1           0.000164989    0.000166003   -0.000348028
      7        1          -0.000321775    0.000017531    0.000186798
      8        1           0.000321775   -0.000017531    0.000186798
      9        1           0.000066802    0.000087647   -0.000090374
     10        1          -0.000164989   -0.000166003   -0.000348028
 -------------------------------------------------------------------
 Cartesian Forces:  Max     0.000348028 RMS     0.000198009

 GradGradGradGradGradGradGradGradGradGradGradGradGradGradGradGradGradGrad
 Berny optimization.
 Using GEDIIS/GDIIS optimizer.
 FormGI is forming the generalized inverse of G from B-inverse, IUseBI=4.
 Internal  Forces:  Max     0.000472020 RMS     0.000252655
 Search for a local minimum.
 Step number   2 out of a maximum of   43
 All quantities printed in internal units (Hartrees-Bohrs-Radians)
 Mixed Optimization -- En-DIIS/RFO-DIIS
 Update second derivatives using D2CorX and points    1    2
 DE= -2.89D-04 DEPred=-2.75D-04 R= 1.05D+00
 TightC=F SS=  1.41D+00  RLast= 7.55D-02 DXNew= 5.0454D-01 2.2642D-01
 Trust test= 1.05D+00 RLast= 7.55D-02 DXMaxT set to 3.00D-01
 ITU=  1  0
 Use linear search instead of GDIIS.
     Eigenvalues ---    0.00942   0.02012   0.02014   0.02850   0.02867
     Eigenvalues ---    0.02867   0.02867   0.15810   0.15999   0.16000
     Eigenvalues ---    0.16000   0.16000   0.16025   0.22000   0.22030
     Eigenvalues ---    0.34038   0.34106   0.34137   0.34945   0.35011
     Eigenvalues ---    0.35233   0.38678   0.56939   0.58004
 RFO step:  Lambda=-6.13495271D-05 EMin= 9.42369228D-03
 Quartic linear search produced a step of  0.04923.
 Iteration  1 RMS(Cart)=  0.02151160 RMS(Int)=  0.00021364
 Iteration  2 RMS(Cart)=  0.00030237 RMS(Int)=  0.00000030
 Iteration  3 RMS(Cart)=  0.00000004 RMS(Int)=  0.00000030
 ClnCor:  largest displacement from symmetrization is 2.47D-13 for atom    10.
 Variable       Old X    -DE/DX   Delta X   Delta X   Delta X     New X
                                 (Linear)    (Quad)   (Total)
    R1        2.53020   0.00036  -0.00021   0.00040   0.00019   2.53039
    R2        2.05027   0.00008  -0.00031  -0.00012  -0.00043   2.04983
    R3        2.05202   0.00041  -0.00102   0.00002  -0.00099   2.05102
    R4        2.77909  -0.00018  -0.00027  -0.00087  -0.00114   2.77795
    R5        2.05791   0.00020  -0.00064  -0.00016  -0.00080   2.05711
    R6        2.53020   0.00036  -0.00021   0.00040   0.00019   2.53039
    R7        2.05791   0.00020  -0.00064  -0.00016  -0.00080   2.05711
    R8        2.05027   0.00008  -0.00031  -0.00012  -0.00043   2.04983
    R9        2.05202   0.00041  -0.00102   0.00002  -0.00099   2.05102
    A1        2.11391   0.00015   0.00037   0.00142   0.00179   2.11571
    A2        2.13488  -0.00011  -0.00020  -0.00098  -0.00118   2.13369
    A3        2.03436  -0.00004  -0.00017  -0.00044  -0.00061   2.03375
    A4        2.21638  -0.00047   0.00007  -0.00217  -0.00210   2.21428
    A5        2.05853   0.00033  -0.00005   0.00166   0.00162   2.06015
    A6        2.00819   0.00014  -0.00002   0.00049   0.00046   2.00865
    A7        2.21638  -0.00047   0.00007  -0.00217  -0.00210   2.21428
    A8        2.00819   0.00014  -0.00002   0.00049   0.00046   2.00865
    A9        2.05853   0.00033  -0.00005   0.00166   0.00162   2.06015
   A10        2.11391   0.00015   0.00037   0.00142   0.00179   2.11571
   A11        2.13488  -0.00011  -0.00020  -0.00098  -0.00118   2.13369
   A12        2.03436  -0.00004  -0.00017  -0.00044  -0.00061   2.03375
    D1       -3.13044   0.00005   0.00004   0.00174   0.00177  -3.12866
    D2        0.02630   0.00008   0.00028   0.00320   0.00348   0.02977
    D3        0.02022   0.00008   0.00003   0.00265   0.00267   0.02289
    D4       -3.10623   0.00010   0.00027   0.00411   0.00438  -3.10186
    D5        0.25150   0.00040   0.00179   0.03821   0.04000   0.29150
    D6       -2.90486   0.00038   0.00156   0.03679   0.03835  -2.86651
    D7       -2.90486   0.00038   0.00156   0.03679   0.03835  -2.86651
    D8        0.22197   0.00036   0.00132   0.03538   0.03670   0.25867
    D9       -3.13044   0.00005   0.00004   0.00174   0.00177  -3.12866
   D10        0.02022   0.00008   0.00003   0.00265   0.00267   0.02289
   D11        0.02630   0.00008   0.00028   0.00320   0.00348   0.02977
   D12       -3.10623   0.00010   0.00027   0.00411   0.00438  -3.10186
         Item               Value     Threshold  Converged?
 Maximum Force            0.000472     0.000450     NO 
 RMS     Force            0.000253     0.000300     YES
 Maximum Displacement     0.063493     0.001800     NO 
 RMS     Displacement     0.021505     0.001200     NO 
 Predicted change in Energy=-3.211363D-05
 GradGradGradGradGradGradGradGradGradGradGradGradGradGradGradGradGradGrad

                          Input orientation:                          
 ---------------------------------------------------------------------
 Center     Atomic      Atomic             Coordinates (Angstroms)
 Number     Number       Type             X           Y           Z
 ---------------------------------------------------------------------
      1          6           0        0.041544   -1.545695   -0.499987
      2          6           0       -0.054281   -0.733008    0.559889
      3          6           0        0.054281    0.733008    0.559889
      4          6           0       -0.041544    1.545695   -0.499987
      5          1           0       -0.065459   -2.620125   -0.396157
      6          1           0        0.237687   -1.172528   -1.500120
      7          1           0       -0.215174   -1.183911    1.537538
      8          1           0        0.215174    1.183911    1.537538
      9          1           0        0.065459    2.620125   -0.396157
     10          1           0       -0.237687    1.172528   -1.500120
 ---------------------------------------------------------------------
                    Distance matrix (angstroms):
                    1          2          3          4          5
     1  C    0.000000
     2  C    1.339022   0.000000
     3  C    2.513163   1.470030   0.000000
     4  C    3.092507   2.513163   1.339022   0.000000
     5  H    1.084725   2.115504   3.488820   4.167183   0.000000
     6  H    1.085353   2.126514   2.812178   2.909807   1.845581
     7  H    2.085258   1.088576   2.168636   3.410631   2.413359
     8  H    3.410631   2.168636   1.088576   2.085258   4.276519
     9  H    4.167183   3.488820   2.115504   1.084725   5.241885
    10  H    2.909807   2.812178   2.126514   1.085353   3.953810
                    6          7          8          9         10
     6  H    0.000000
     7  H    3.071251   0.000000
     8  H    3.844565   2.406611   0.000000
     9  H    3.953810   4.276519   2.413359   0.000000
    10  H    2.392754   3.844565   3.071251   1.845581   0.000000
 Stoichiometry    C4H6
 Framework group  C2[X(C4H6)]
 Deg. of freedom    13
 Full point group                 C2      NOp   2
 Largest Abelian subgroup         C2      NOp   2
 Largest concise Abelian subgroup C2      NOp   2
                         Standard orientation:                         
 ---------------------------------------------------------------------
 Center     Atomic      Atomic             Coordinates (Angstroms)
 Number     Number       Type             X           Y           Z
 ---------------------------------------------------------------------
      1          6           0        0.139744    1.539926   -0.500032
      2          6           0        0.139744    0.721609    0.559844
      3          6           0       -0.139744   -0.721609    0.559844
      4          6           0       -0.139744   -1.539926   -0.500032
      5          1           0        0.371828    2.594433   -0.396201
      6          1           0       -0.098747    1.192295   -1.500165
      7          1           0        0.352331    1.150568    1.537493
      8          1           0       -0.352331   -1.150568    1.537493
      9          1           0       -0.371828   -2.594433   -0.396201
     10          1           0        0.098747   -1.192295   -1.500165
 ---------------------------------------------------------------------
 Rotational constants (GHZ):          21.5439782           5.6154904           4.4802609
 Standard basis: 6-31G(d,p) (6D, 7F)
 There are    45 symmetry adapted cartesian basis functions of A   symmetry.
 There are    45 symmetry adapted cartesian basis functions of B   symmetry.
 There are    45 symmetry adapted basis functions of A   symmetry.
 There are    45 symmetry adapted basis functions of B   symmetry.
    90 basis functions,   154 primitive gaussians,    90 cartesian basis functions
    15 alpha electrons       15 beta electrons
       nuclear repulsion energy       104.5688624449 Hartrees.
 NAtoms=   10 NActive=   10 NUniq=    5 SFac= 4.00D+00 NAtFMM=   60 NAOKFM=F Big=F
 Integral buffers will be    131072 words long.
 Raffenetti 2 integral format.
 Two-electron integral symmetry is turned on.
 One-electron integrals computed using PRISM.
 NBasis=    90 RedAO= T EigKep=  2.88D-03  NBF=    45    45
 NBsUse=    90 1.00D-06 EigRej= -1.00D+00 NBFU=    45    45
 Initial guess from the checkpoint file:  "cis-C=CC=C.chk"
 B after Tr=    -0.000000   -0.000000   -0.000000
         Rot=    0.999968    0.000000    0.000000    0.008042 Ang=   0.92 deg.
 Initial guess orbital symmetries:
       Occupied  (A) (B) (B) (A) (A) (B) (A) (B) (A) (A) (B) (B)
                 (A) (B) (A)
       Virtual   (B) (A) (A) (A) (B) (B) (B) (A) (A) (B) (B) (A)
                 (A) (B) (B) (A) (A) (B) (A) (B) (A) (A) (B) (B)
                 (A) (A) (B) (B) (B) (A) (B) (A) (B) (B) (A) (A)
                 (B) (B) (A) (A) (A) (B) (A) (B) (A) (B) (A) (B)
                 (B) (A) (A) (B) (B) (A) (B) (A) (B) (B) (A) (A)
                 (A) (B) (B) (A) (B) (A) (B) (A) (B) (A) (B) (A)
                 (B) (A) (B)
 ExpMin= 1.61D-01 ExpMax= 3.05D+03 ExpMxC= 4.57D+02 IAcc=3 IRadAn=         7 AccDes= 0.00D+00
 Harris functional with IExCor=  402 and IRadAn=       7 diagonalized for initial guess.
 HarFok:  IExCor=  402 AccDes= 0.00D+00 IRadAn=         7 IDoV= 1 UseB2=F ITyADJ=14
 ICtDFT=  3500011 ScaDFX=  1.000000  1.000000  1.000000  1.000000
 FoFCou: FMM=F IPFlag=           0 FMFlag=      100000 FMFlg1=           0
         NFxFlg=           0 DoJE=T BraDBF=F KetDBF=T FulRan=T
         wScrn=  0.000000 ICntrl=       500 IOpCl=  0 I1Cent=   200000004 NGrid=           0
         NMat0=    1 NMatS0=      1 NMatT0=    0 NMatD0=    1 NMtDS0=    0 NMtDT0=    0
 Petite list used in FoFCou.
 Keep R1 ints in memory in symmetry-blocked form, NReq=15742186.
 Requested convergence on RMS density matrix=1.00D-08 within 128 cycles.
 Requested convergence on MAX density matrix=1.00D-06.
 Requested convergence on             energy=1.00D-06.
 No special actions if energy rises.
 Integral accuracy reduced to 1.0D-05 until final iterations.
 Initial convergence to 1.0D-05 achieved.  Increase integral accuracy.
 SCF Done:  E(RB3LYP) =  -155.995781939     A.U. after    9 cycles
            NFock=  9  Conv=0.22D-08     -V/T= 2.0102
 Calling FoFJK, ICntrl=      2127 FMM=F ISym2X=1 I1Cent= 0 IOpClX= 0 NMat=1 NMatS=1 NMatT=0.
 ***** Axes restored to original set *****
 -------------------------------------------------------------------
 Center     Atomic                   Forces (Hartrees/Bohr)
 Number     Number              X              Y              Z
 -------------------------------------------------------------------
      1        6           0.000268057   -0.000042222    0.000373235
      2        6          -0.000195735    0.000018678   -0.000228278
      3        6           0.000195735   -0.000018678   -0.000228278
      4        6          -0.000268057    0.000042222    0.000373235
      5        1          -0.000106008   -0.000246670    0.000075761
      6        1           0.000255818    0.000360993   -0.000665874
      7        1          -0.000368790   -0.000205837    0.000445156
      8        1           0.000368790    0.000205837    0.000445156
      9        1           0.000106008    0.000246670    0.000075761
     10        1          -0.000255818   -0.000360993   -0.000665874
 -------------------------------------------------------------------
 Cartesian Forces:  Max     0.000665874 RMS     0.000305202

 GradGradGradGradGradGradGradGradGradGradGradGradGradGradGradGradGradGrad
 Berny optimization.
 Using GEDIIS/GDIIS optimizer.
 FormGI is forming the generalized inverse of G from B-inverse, IUseBI=4.
 Internal  Forces:  Max     0.000783940 RMS     0.000321387
 Search for a local minimum.
 Step number   3 out of a maximum of   43
 All quantities printed in internal units (Hartrees-Bohrs-Radians)
 Mixed Optimization -- En-DIIS/RFO-DIIS
 Swapping is turned off.
 Update second derivatives using D2CorX and points    1    2    3
 DE= -6.27D-05 DEPred=-3.21D-05 R= 1.95D+00
 TightC=F SS=  1.41D+00  RLast= 7.75D-02 DXNew= 5.0454D-01 2.3241D-01
 Trust test= 1.95D+00 RLast= 7.75D-02 DXMaxT set to 3.00D-01
 ITU=  1  1  0
     Eigenvalues ---    0.00011   0.02014   0.02016   0.02810   0.02867
     Eigenvalues ---    0.02867   0.02870   0.15862   0.15999   0.16000
     Eigenvalues ---    0.16000   0.16020   0.18284   0.21244   0.22000
     Eigenvalues ---    0.34038   0.34137   0.34169   0.34936   0.35011
     Eigenvalues ---    0.35393   0.56021   0.56939   0.94117
 En-DIIS/RFO-DIIS/Sim-DIIS IScMMF=       -3 using points:     3    2
 RFO step:  Lambda=-7.60653030D-04.
 DidBck=F Rises=F En-DIIS coefs:    1.00000    0.00000
 Iteration  1 RMS(Cart)=  0.12762163 RMS(Int)=  0.09271248
 Iteration  2 RMS(Cart)=  0.10877229 RMS(Int)=  0.02312008
 Iteration  3 RMS(Cart)=  0.03682085 RMS(Int)=  0.00052164
 Iteration  4 RMS(Cart)=  0.00074138 RMS(Int)=  0.00003793
 Iteration  5 RMS(Cart)=  0.00000024 RMS(Int)=  0.00003793
 ClnCor:  largest displacement from symmetrization is 4.82D-10 for atom     8.
 Variable       Old X    -DE/DX   Delta X   Delta X   Delta X     New X
                                 (Linear)    (Quad)   (Total)
    R1        2.53039   0.00016   0.00000   0.00092   0.00092   2.53130
    R2        2.04983   0.00026   0.00000  -0.00290  -0.00290   2.04693
    R3        2.05102   0.00078   0.00000  -0.00672  -0.00672   2.04430
    R4        2.77795   0.00013   0.00000  -0.01019  -0.01019   2.76777
    R5        2.05711   0.00054   0.00000  -0.00509  -0.00509   2.05202
    R6        2.53039   0.00016   0.00000   0.00092   0.00092   2.53130
    R7        2.05711   0.00054   0.00000  -0.00509  -0.00509   2.05202
    R8        2.04983   0.00026   0.00000  -0.00290  -0.00290   2.04693
    R9        2.05102   0.00078   0.00000  -0.00672  -0.00672   2.04430
    A1        2.11571  -0.00001   0.00000   0.01778   0.01776   2.13347
    A2        2.13369  -0.00011   0.00000  -0.01473  -0.01475   2.11894
    A3        2.03375   0.00012   0.00000  -0.00316  -0.00318   2.03056
    A4        2.21428  -0.00048   0.00000  -0.02698  -0.02705   2.18723
    A5        2.06015   0.00023   0.00000   0.01780   0.01773   2.07788
    A6        2.00865   0.00025   0.00000   0.00888   0.00881   2.01746
    A7        2.21428  -0.00048   0.00000  -0.02698  -0.02705   2.18723
    A8        2.00865   0.00025   0.00000   0.00888   0.00881   2.01746
    A9        2.06015   0.00023   0.00000   0.01780   0.01773   2.07788
   A10        2.11571  -0.00001   0.00000   0.01778   0.01776   2.13347
   A11        2.13369  -0.00011   0.00000  -0.01473  -0.01475   2.11894
   A12        2.03375   0.00012   0.00000  -0.00316  -0.00318   2.03056
    D1       -3.12866   0.00005   0.00000   0.02130   0.02127  -3.10740
    D2        0.02977   0.00008   0.00000   0.04391   0.04394   0.07371
    D3        0.02289   0.00008   0.00000   0.03420   0.03417   0.05706
    D4       -3.10186   0.00011   0.00000   0.05681   0.05684  -3.04501
    D5        0.29150   0.00041   0.00000   0.48330   0.48324   0.77474
    D6       -2.86651   0.00038   0.00000   0.46135   0.46135  -2.40515
    D7       -2.86651   0.00038   0.00000   0.46135   0.46135  -2.40515
    D8        0.25867   0.00035   0.00000   0.43940   0.43947   0.69814
    D9       -3.12866   0.00005   0.00000   0.02130   0.02127  -3.10740
   D10        0.02289   0.00008   0.00000   0.03420   0.03417   0.05706
   D11        0.02977   0.00008   0.00000   0.04391   0.04394   0.07371
   D12       -3.10186   0.00011   0.00000   0.05681   0.05684  -3.04501
         Item               Value     Threshold  Converged?
 Maximum Force            0.000784     0.000450     NO 
 RMS     Force            0.000321     0.000300     NO 
 Maximum Displacement     0.742239     0.001800     NO 
 RMS     Displacement     0.258808     0.001200     NO 
 Predicted change in Energy=-7.109995D-04
 GradGradGradGradGradGradGradGradGradGradGradGradGradGradGradGradGradGrad

                          Input orientation:                          
 ---------------------------------------------------------------------
 Center     Atomic      Atomic             Coordinates (Angstroms)
 Number     Number       Type             X           Y           Z
 ---------------------------------------------------------------------
      1          6           0        0.137377   -1.556218   -0.477085
      2          6           0       -0.130679   -0.720566    0.534898
      3          6           0        0.130679    0.720566    0.534898
      4          6           0       -0.137377    1.556218   -0.477085
      5          1           0       -0.105614   -2.610973   -0.435310
      6          1           0        0.630463   -1.212459   -1.376522
      7          1           0       -0.543964   -1.122323    1.455182
      8          1           0        0.543964    1.122323    1.455182
      9          1           0        0.105614    2.610973   -0.435310
     10          1           0       -0.630463    1.212459   -1.376522
 ---------------------------------------------------------------------
                    Distance matrix (angstroms):
                    1          2          3          4          5
     1  C    0.000000
     2  C    1.339507   0.000000
     3  C    2.491565   1.464639   0.000000
     4  C    3.124539   2.491565   1.339507   0.000000
     5  H    1.083189   2.124987   3.477972   4.167521   0.000000
     6  H    1.081799   2.115377   2.764035   3.010670   1.839437
     7  H    2.094313   1.085881   2.167558   3.327695   2.445851
     8  H    3.327695   2.167558   1.085881   2.094313   4.234786
     9  H    4.167521   3.477972   2.124987   1.083189   5.226216
    10  H    3.010670   2.764035   2.115377   1.081799   3.972402
                    6          7          8          9         10
     6  H    0.000000
     7  H    3.066912   0.000000
     8  H    3.671136   2.494399   0.000000
     9  H    3.972402   4.234786   2.445851   0.000000
    10  H    2.733158   3.671136   3.066912   1.839437   0.000000
 Stoichiometry    C4H6
 Framework group  C2[X(C4H6)]
 Deg. of freedom    13
 Full point group                 C2      NOp   2
 Largest Abelian subgroup         C2      NOp   2
 Largest concise Abelian subgroup C2      NOp   2
                         Standard orientation:                         
 ---------------------------------------------------------------------
 Center     Atomic      Atomic             Coordinates (Angstroms)
 Number     Number       Type             X           Y           Z
 ---------------------------------------------------------------------
      1          6           0        0.344527    1.523807   -0.476434
      2          6           0        0.344527    0.646214    0.535549
      3          6           0       -0.344527   -0.646214    0.535549
      4          6           0       -0.344527   -1.523807   -0.476434
      5          1           0        0.898075    2.453935   -0.434658
      6          1           0       -0.229993    1.347087   -1.375870
      7          1           0        0.860776    0.902536    1.455834
      8          1           0       -0.860776   -0.902536    1.455834
      9          1           0       -0.898075   -2.453935   -0.434658
     10          1           0        0.229993   -1.347087   -1.375870
 ---------------------------------------------------------------------
 Rotational constants (GHZ):          21.9779165           5.4866495           4.5654224
 Standard basis: 6-31G(d,p) (6D, 7F)
 There are    45 symmetry adapted cartesian basis functions of A   symmetry.
 There are    45 symmetry adapted cartesian basis functions of B   symmetry.
 There are    45 symmetry adapted basis functions of A   symmetry.
 There are    45 symmetry adapted basis functions of B   symmetry.
    90 basis functions,   154 primitive gaussians,    90 cartesian basis functions
    15 alpha electrons       15 beta electrons
       nuclear repulsion energy       104.7011143843 Hartrees.
 NAtoms=   10 NActive=   10 NUniq=    5 SFac= 4.00D+00 NAtFMM=   60 NAOKFM=F Big=F
 Integral buffers will be    131072 words long.
 Raffenetti 2 integral format.
 Two-electron integral symmetry is turned on.
 One-electron integrals computed using PRISM.
 NBasis=    90 RedAO= T EigKep=  3.72D-03  NBF=    45    45
 NBsUse=    90 1.00D-06 EigRej= -1.00D+00 NBFU=    45    45
 Initial guess from the checkpoint file:  "cis-C=CC=C.chk"
 B after Tr=     0.000000    0.000000    0.000000
         Rot=    0.996162   -0.000000   -0.000000    0.087533 Ang=  10.04 deg.
 Initial guess orbital symmetries:
       Occupied  (A) (B) (B) (A) (A) (B) (A) (B) (A) (A) (B) (B)
                 (A) (B) (A)
       Virtual   (B) (A) (A) (A) (B) (B) (B) (A) (A) (B) (B) (A)
                 (A) (B) (B) (A) (A) (B) (A) (B) (A) (A) (B) (B)
                 (A) (A) (B) (B) (B) (A) (B) (A) (B) (B) (A) (A)
                 (B) (B) (A) (A) (A) (B) (A) (B) (A) (B) (A) (B)
                 (B) (A) (A) (B) (B) (A) (B) (A) (B) (B) (A) (A)
                 (A) (B) (B) (A) (B) (A) (B) (A) (B) (A) (B) (A)
                 (B) (A) (B)
 ExpMin= 1.61D-01 ExpMax= 3.05D+03 ExpMxC= 4.57D+02 IAcc=3 IRadAn=         7 AccDes= 0.00D+00
 Harris functional with IExCor=  402 and IRadAn=       7 diagonalized for initial guess.
 HarFok:  IExCor=  402 AccDes= 0.00D+00 IRadAn=         7 IDoV= 1 UseB2=F ITyADJ=14
 ICtDFT=  3500011 ScaDFX=  1.000000  1.000000  1.000000  1.000000
 FoFCou: FMM=F IPFlag=           0 FMFlag=      100000 FMFlg1=           0
         NFxFlg=           0 DoJE=T BraDBF=F KetDBF=T FulRan=T
         wScrn=  0.000000 ICntrl=       500 IOpCl=  0 I1Cent=   200000004 NGrid=           0
         NMat0=    1 NMatS0=      1 NMatT0=    0 NMatD0=    1 NMtDS0=    0 NMtDT0=    0
 Petite list used in FoFCou.
 Keep R1 ints in memory in symmetry-blocked form, NReq=15742186.
 Requested convergence on RMS density matrix=1.00D-08 within 128 cycles.
 Requested convergence on MAX density matrix=1.00D-06.
 Requested convergence on             energy=1.00D-06.
 No special actions if energy rises.
 Integral accuracy reduced to 1.0D-05 until final iterations.
 Initial convergence to 1.0D-05 achieved.  Increase integral accuracy.
 SCF Done:  E(RB3LYP) =  -155.995314301     A.U. after   12 cycles
            NFock= 12  Conv=0.65D-08     -V/T= 2.0101
 Calling FoFJK, ICntrl=      2127 FMM=F ISym2X=1 I1Cent= 0 IOpClX= 0 NMat=1 NMatS=1 NMatT=0.
 ***** Axes restored to original set *****
 -------------------------------------------------------------------
 Center     Atomic                   Forces (Hartrees/Bohr)
 Number     Number              X              Y              Z
 -------------------------------------------------------------------
      1        6          -0.001203006    0.001857641    0.002131306
      2        6           0.000959459   -0.003485378   -0.003201314
      3        6          -0.000959459    0.003485378   -0.003201314
      4        6           0.001203006   -0.001857641    0.002131306
      5        1          -0.000212829   -0.001632272    0.001750221
      6        1           0.000212378    0.002116817   -0.003098240
      7        1          -0.001642864   -0.002031221    0.002418027
      8        1           0.001642864    0.002031221    0.002418027
      9        1           0.000212829    0.001632272    0.001750221
     10        1          -0.000212378   -0.002116817   -0.003098240
 -------------------------------------------------------------------
 Cartesian Forces:  Max     0.003485378 RMS     0.002086897

 GradGradGradGradGradGradGradGradGradGradGradGradGradGradGradGradGradGrad
 Berny optimization.
 Using GEDIIS/GDIIS optimizer.
 FormGI is forming the generalized inverse of G from B-inverse, IUseBI=4.
 Internal  Forces:  Max     0.003460139 RMS     0.001800055
 Search for a local minimum.
 Step number   4 out of a maximum of   43
 All quantities printed in internal units (Hartrees-Bohrs-Radians)
 Mixed Optimization -- RFO/linear search
 Update second derivatives using D2CorX and points    1    2    4    3
 DE=  4.68D-04 DEPred=-7.11D-04 R=-6.58D-01
 Trust test=-6.58D-01 RLast= 9.32D-01 DXMaxT set to 1.50D-01
 ITU= -1  1  1  0
 Use linear search instead of GDIIS.
     Eigenvalues ---    0.00340   0.02021   0.02049   0.02867   0.02867
     Eigenvalues ---    0.02868   0.03064   0.15479   0.15994   0.16000
     Eigenvalues ---    0.16000   0.16007   0.19451   0.20901   0.22002
     Eigenvalues ---    0.34038   0.34075   0.34137   0.34843   0.35011
     Eigenvalues ---    0.35290   0.44939   0.56939   0.81400
 RFO step:  Lambda=-9.90434310D-05 EMin= 3.40349230D-03
 Quartic linear search produced a step of -0.57556.
 Iteration  1 RMS(Cart)=  0.12008434 RMS(Int)=  0.01488302
 Iteration  2 RMS(Cart)=  0.02224560 RMS(Int)=  0.00022691
 Iteration  3 RMS(Cart)=  0.00037944 RMS(Int)=  0.00001265
 Iteration  4 RMS(Cart)=  0.00000008 RMS(Int)=  0.00001265
 ClnCor:  largest displacement from symmetrization is 9.06D-11 for atom     8.
 Variable       Old X    -DE/DX   Delta X   Delta X   Delta X     New X
                                 (Linear)    (Quad)   (Total)
    R1        2.53130  -0.00229  -0.00053  -0.00004  -0.00056   2.53074
    R2        2.04693   0.00170   0.00167   0.00144   0.00311   2.05004
    R3        2.04430   0.00335   0.00387   0.00384   0.00771   2.05201
    R4        2.76777   0.00346   0.00586   0.00185   0.00771   2.77548
    R5        2.05202   0.00343   0.00293   0.00322   0.00615   2.05817
    R6        2.53130  -0.00229  -0.00053  -0.00004  -0.00056   2.53074
    R7        2.05202   0.00343   0.00293   0.00322   0.00615   2.05817
    R8        2.04693   0.00170   0.00167   0.00144   0.00311   2.05004
    R9        2.04430   0.00335   0.00387   0.00384   0.00771   2.05201
    A1        2.13347  -0.00148  -0.01022  -0.00085  -0.01110   2.12237
    A2        2.11894  -0.00007   0.00849  -0.00087   0.00760   2.12655
    A3        2.03056   0.00156   0.00183   0.00187   0.00368   2.03424
    A4        2.18723  -0.00129   0.01557  -0.00475   0.01080   2.19803
    A5        2.07788  -0.00022  -0.01020   0.00226  -0.00797   2.06991
    A6        2.01746   0.00153  -0.00507   0.00276  -0.00233   2.01513
    A7        2.18723  -0.00129   0.01557  -0.00475   0.01080   2.19803
    A8        2.01746   0.00153  -0.00507   0.00276  -0.00233   2.01513
    A9        2.07788  -0.00022  -0.01020   0.00226  -0.00797   2.06991
   A10        2.13347  -0.00148  -0.01022  -0.00085  -0.01110   2.12237
   A11        2.11894  -0.00007   0.00849  -0.00087   0.00760   2.12655
   A12        2.03056   0.00156   0.00183   0.00187   0.00368   2.03424
    D1       -3.10740  -0.00048  -0.01224  -0.00296  -0.01519  -3.12259
    D2        0.07371  -0.00096  -0.02529  -0.01160  -0.03689   0.03682
    D3        0.05706  -0.00106  -0.01967  -0.01106  -0.03073   0.02634
    D4       -3.04501  -0.00155  -0.03272  -0.01970  -0.05242  -3.09743
    D5        0.77474  -0.00163  -0.27813   0.02191  -0.25622   0.51852
    D6       -2.40515  -0.00119  -0.26554   0.03028  -0.23525  -2.64041
    D7       -2.40515  -0.00119  -0.26554   0.03028  -0.23525  -2.64041
    D8        0.69814  -0.00075  -0.25294   0.03866  -0.21428   0.48386
    D9       -3.10740  -0.00048  -0.01224  -0.00296  -0.01519  -3.12259
   D10        0.05706  -0.00106  -0.01967  -0.01106  -0.03073   0.02634
   D11        0.07371  -0.00096  -0.02529  -0.01160  -0.03689   0.03682
   D12       -3.04501  -0.00155  -0.03272  -0.01970  -0.05242  -3.09743
         Item               Value     Threshold  Converged?
 Maximum Force            0.003460     0.000450     NO 
 RMS     Force            0.001800     0.000300     NO 
 Maximum Displacement     0.400063     0.001800     NO 
 RMS     Displacement     0.139763     0.001200     NO 
 Predicted change in Energy=-5.065222D-04
 GradGradGradGradGradGradGradGradGradGradGradGradGradGradGradGradGradGrad

                          Input orientation:                          
 ---------------------------------------------------------------------
 Center     Atomic      Atomic             Coordinates (Angstroms)
 Number     Number       Type             X           Y           Z
 ---------------------------------------------------------------------
      1          6           0        0.089409   -1.542962   -0.491825
      2          6           0       -0.090068   -0.728815    0.556236
      3          6           0        0.090068    0.728815    0.556236
      4          6           0       -0.089409    1.542962   -0.491825
      5          1           0       -0.080925   -2.611736   -0.417164
      6          1           0        0.418758   -1.170160   -1.457060
      7          1           0       -0.381303   -1.164555    1.510976
      8          1           0        0.381303    1.164555    1.510976
      9          1           0        0.080925    2.611736   -0.417164
     10          1           0       -0.418758    1.170160   -1.457060
 ---------------------------------------------------------------------
                    Distance matrix (angstroms):
                    1          2          3          4          5
     1  C    0.000000
     2  C    1.339209   0.000000
     3  C    2.501880   1.468719   0.000000
     4  C    3.091100   2.501880   1.339209   0.000000
     5  H    1.084835   2.119666   3.483681   4.155378   0.000000
     6  H    1.085877   2.122982   2.787024   2.924200   1.846404
     7  H    2.091883   1.089136   2.172227   3.380395   2.429462
     8  H    3.380395   2.172227   1.089136   2.091883   4.265180
     9  H    4.155378   3.483681   2.119666   1.084835   5.225980
    10  H    2.924200   2.787024   2.122982   1.085877   3.936782
                    6          7          8          9         10
     6  H    0.000000
     7  H    3.073983   0.000000
     8  H    3.776445   2.450780   0.000000
     9  H    3.936782   4.265180   2.429462   0.000000
    10  H    2.485666   3.776445   3.073983   1.846404   0.000000
 Stoichiometry    C4H6
 Framework group  C2[X(C4H6)]
 Deg. of freedom    13
 Full point group                 C2      NOp   2
 Largest Abelian subgroup         C2      NOp   2
 Largest concise Abelian subgroup C2      NOp   2
                         Standard orientation:                         
 ---------------------------------------------------------------------
 Center     Atomic      Atomic             Coordinates (Angstroms)
 Number     Number       Type             X           Y           Z
 ---------------------------------------------------------------------
      1          6           0        0.244855    1.526031   -0.493373
      2          6           0        0.244855    0.692337    0.554688
      3          6           0       -0.244855   -0.692337    0.554688
      4          6           0       -0.244855   -1.526031   -0.493373
      5          1           0        0.641280    2.533076   -0.418712
      6          1           0       -0.157029    1.232873   -1.458608
      7          1           0        0.623067    1.055163    1.509429
      8          1           0       -0.623067   -1.055163    1.509429
      9          1           0       -0.641280   -2.533076   -0.418712
     10          1           0        0.157029   -1.232873   -1.458608
 ---------------------------------------------------------------------
 Rotational constants (GHZ):          21.5287909           5.6044491           4.5284346
 Standard basis: 6-31G(d,p) (6D, 7F)
 There are    45 symmetry adapted cartesian basis functions of A   symmetry.
 There are    45 symmetry adapted cartesian basis functions of B   symmetry.
 There are    45 symmetry adapted basis functions of A   symmetry.
 There are    45 symmetry adapted basis functions of B   symmetry.
    90 basis functions,   154 primitive gaussians,    90 cartesian basis functions
    15 alpha electrons       15 beta electrons
       nuclear repulsion energy       104.6505169219 Hartrees.
 NAtoms=   10 NActive=   10 NUniq=    5 SFac= 4.00D+00 NAtFMM=   60 NAOKFM=F Big=F
 Integral buffers will be    131072 words long.
 Raffenetti 2 integral format.
 Two-electron integral symmetry is turned on.
 One-electron integrals computed using PRISM.
 NBasis=    90 RedAO= T EigKep=  3.23D-03  NBF=    45    45
 NBsUse=    90 1.00D-06 EigRej= -1.00D+00 NBFU=    45    45
 Lowest energy guess from the checkpoint file:  "cis-C=CC=C.chk"
 B after Tr=     0.000000    0.000000    0.000000
         Rot=    0.998983    0.000000    0.000000    0.045094 Ang=   5.17 deg.
 B after Tr=    -0.000000   -0.000000    0.000000
         Rot=    0.999083    0.000000    0.000000   -0.042826 Ang=  -4.91 deg.
 Initial guess orbital symmetries:
       Occupied  (B) (A) (A) (B) (B) (A) (A) (B) (A) (B) (A) (B)
                 (A) (B) (A)
       Virtual   (B) (A) (A) (B) (B) (A) (A) (B) (A) (B) (A) (B)
                 (A) (B) (A) (B) (B) (B) (B) (B) (B) (B) (B) (B)
                 (B) (B) (B) (B) (B) (B) (B) (B) (B) (B) (B) (B)
                 (B) (B) (B) (B) (B) (B) (B) (B) (B) (B) (B) (B)
                 (B) (B) (B) (B) (B) (B) (B) (B) (B) (B) (B) (B)
                 (B) (B) (B) (B) (B) (B) (B) (B) (B) (B) (B) (B)
                 (B) (B) (B)
 Keep R1 ints in memory in symmetry-blocked form, NReq=15742186.
 Requested convergence on RMS density matrix=1.00D-08 within 128 cycles.
 Requested convergence on MAX density matrix=1.00D-06.
 Requested convergence on             energy=1.00D-06.
 No special actions if energy rises.
 Integral accuracy reduced to 1.0D-05 until final iterations.
 An orbital has undefined symmetry, so N**3 symmetry is turned off.
 Initial convergence to 1.0D-05 achieved.  Increase integral accuracy.
 SCF Done:  E(RB3LYP) =  -155.996024422     A.U. after   10 cycles
            NFock= 10  Conv=0.11D-08     -V/T= 2.0102
 Calling FoFJK, ICntrl=      2127 FMM=F ISym2X=1 I1Cent= 0 IOpClX= 0 NMat=1 NMatS=1 NMatT=0.
 ***** Axes restored to original set *****
 -------------------------------------------------------------------
 Center     Atomic                   Forces (Hartrees/Bohr)
 Number     Number              X              Y              Z
 -------------------------------------------------------------------
      1        6          -0.000374261    0.000424964    0.000374624
      2        6          -0.000258990   -0.000891930   -0.001112830
      3        6           0.000258990    0.000891930   -0.001112830
      4        6           0.000374261   -0.000424964    0.000374624
      5        1          -0.000303888   -0.000270563    0.000424673
      6        1           0.000568843    0.000418346   -0.000142449
      7        1           0.000315528   -0.000555690    0.000455982
      8        1          -0.000315528    0.000555690    0.000455982
      9        1           0.000303888    0.000270563    0.000424673
     10        1          -0.000568843   -0.000418346   -0.000142449
 -------------------------------------------------------------------
 Cartesian Forces:  Max     0.001112830 RMS     0.000519170

 GradGradGradGradGradGradGradGradGradGradGradGradGradGradGradGradGradGrad
 Berny optimization.
 Using GEDIIS/GDIIS optimizer.
 FormGI is forming the generalized inverse of G from B-inverse, IUseBI=4.
 Internal  Forces:  Max     0.000876905 RMS     0.000417475
 Search for a local minimum.
 Step number   5 out of a maximum of   43
 All quantities printed in internal units (Hartrees-Bohrs-Radians)
 Mixed Optimization -- En-DIIS/RFO-DIIS
 Update second derivatives using D2CorX and points    1    2    4    3    5
 DE= -2.42D-04 DEPred=-5.07D-04 R= 4.79D-01
 Trust test= 4.79D-01 RLast= 4.54D-01 DXMaxT set to 1.50D-01
 ITU=  0 -1  1  1  0
 Use linear search instead of GDIIS.
     Eigenvalues ---    0.00172   0.02016   0.02074   0.02842   0.02867
     Eigenvalues ---    0.02867   0.03357   0.15572   0.15999   0.16000
     Eigenvalues ---    0.16000   0.16016   0.19137   0.20794   0.22000
     Eigenvalues ---    0.34038   0.34137   0.34288   0.34962   0.35011
     Eigenvalues ---    0.36321   0.43461   0.56939   0.73023
 RFO step:  Lambda=-2.85816916D-05 EMin= 1.71524915D-03
 Quartic linear search produced a step of  0.00708.
 Iteration  1 RMS(Cart)=  0.01132441 RMS(Int)=  0.00008105
 Iteration  2 RMS(Cart)=  0.00009794 RMS(Int)=  0.00000339
 Iteration  3 RMS(Cart)=  0.00000000 RMS(Int)=  0.00000339
 ClnCor:  largest displacement from symmetrization is 6.76D-12 for atom     8.
 Variable       Old X    -DE/DX   Delta X   Delta X   Delta X     New X
                                 (Linear)    (Quad)   (Total)
    R1        2.53074  -0.00088   0.00000  -0.00071  -0.00071   2.53003
    R2        2.05004   0.00034   0.00000   0.00032   0.00032   2.05036
    R3        2.05201   0.00044   0.00001   0.00018   0.00019   2.05220
    R4        2.77548   0.00087  -0.00002   0.00087   0.00085   2.77632
    R5        2.05817   0.00054   0.00001   0.00043   0.00044   2.05861
    R6        2.53074  -0.00088   0.00000  -0.00071  -0.00071   2.53003
    R7        2.05817   0.00054   0.00001   0.00043   0.00044   2.05861
    R8        2.05004   0.00034   0.00000   0.00032   0.00032   2.05036
    R9        2.05201   0.00044   0.00001   0.00018   0.00019   2.05220
    A1        2.12237  -0.00038   0.00005  -0.00026  -0.00022   2.12215
    A2        2.12655  -0.00017  -0.00005  -0.00155  -0.00160   2.12495
    A3        2.03424   0.00055   0.00000   0.00177   0.00177   2.03601
    A4        2.19803  -0.00015  -0.00012  -0.00217  -0.00229   2.19573
    A5        2.06991  -0.00025   0.00007   0.00029   0.00036   2.07026
    A6        2.01513   0.00040   0.00005   0.00180   0.00184   2.01697
    A7        2.19803  -0.00015  -0.00012  -0.00217  -0.00229   2.19573
    A8        2.01513   0.00040   0.00005   0.00180   0.00184   2.01697
    A9        2.06991  -0.00025   0.00007   0.00029   0.00036   2.07026
   A10        2.12237  -0.00038   0.00005  -0.00026  -0.00022   2.12215
   A11        2.12655  -0.00017  -0.00005  -0.00155  -0.00160   2.12495
   A12        2.03424   0.00055   0.00000   0.00177   0.00177   2.03601
    D1       -3.12259   0.00004   0.00004   0.00045   0.00049  -3.12210
    D2        0.03682   0.00021   0.00005   0.00651   0.00656   0.04338
    D3        0.02634   0.00030   0.00002   0.00713   0.00715   0.03349
    D4       -3.09743   0.00047   0.00003   0.01319   0.01322  -3.08421
    D5        0.51852   0.00016   0.00161   0.01769   0.01930   0.53782
    D6       -2.64041  -0.00001   0.00160   0.01178   0.01338  -2.62703
    D7       -2.64041  -0.00001   0.00160   0.01178   0.01338  -2.62703
    D8        0.48386  -0.00018   0.00159   0.00587   0.00746   0.49132
    D9       -3.12259   0.00004   0.00004   0.00045   0.00049  -3.12210
   D10        0.02634   0.00030   0.00002   0.00713   0.00715   0.03349
   D11        0.03682   0.00021   0.00005   0.00651   0.00656   0.04338
   D12       -3.09743   0.00047   0.00003   0.01319   0.01322  -3.08421
         Item               Value     Threshold  Converged?
 Maximum Force            0.000877     0.000450     NO 
 RMS     Force            0.000417     0.000300     NO 
 Maximum Displacement     0.037432     0.001800     NO 
 RMS     Displacement     0.011327     0.001200     NO 
 Predicted change in Energy=-1.446729D-05
 GradGradGradGradGradGradGradGradGradGradGradGradGradGradGradGradGradGrad

                          Input orientation:                          
 ---------------------------------------------------------------------
 Center     Atomic      Atomic             Coordinates (Angstroms)
 Number     Number       Type             X           Y           Z
 ---------------------------------------------------------------------
      1          6           0        0.091522   -1.542317   -0.491695
      2          6           0       -0.094164   -0.728523    0.555078
      3          6           0        0.094164    0.728523    0.555078
      4          6           0       -0.091522    1.542317   -0.491695
      5          1           0       -0.085380   -2.610378   -0.419682
      6          1           0        0.438567   -1.169554   -1.450838
      7          1           0       -0.391445   -1.164085    1.508300
      8          1           0        0.391445    1.164085    1.508300
      9          1           0        0.085380    2.610378   -0.419682
     10          1           0       -0.438567    1.169554   -1.450838
 ---------------------------------------------------------------------
                    Distance matrix (angstroms):
                    1          2          3          4          5
     1  C    0.000000
     2  C    1.338833   0.000000
     3  C    2.500491   1.469167   0.000000
     4  C    3.090061   2.500491   1.338833   0.000000
     5  H    1.085004   2.119342   3.482909   4.153324   0.000000
     6  H    1.085978   2.121794   2.782986   2.924927   1.847641
     7  H    2.091960   1.089368   2.174032   3.378542   2.429517
     8  H    3.378542   2.174032   1.089368   2.091960   4.265096
     9  H    4.153324   3.482909   2.119342   1.085004   5.223548
    10  H    2.924927   2.782986   2.121794   1.085978   3.933944
                    6          7          8          9         10
     6  H    0.000000
     7  H    3.073345   0.000000
     8  H    3.768898   2.456276   0.000000
     9  H    3.933944   4.265096   2.429517   0.000000
    10  H    2.498158   3.768898   3.073345   1.847641   0.000000
 Stoichiometry    C4H6
 Framework group  C2[X(C4H6)]
 Deg. of freedom    13
 Full point group                 C2      NOp   2
 Largest Abelian subgroup         C2      NOp   2
 Largest concise Abelian subgroup C2      NOp   2
                         Standard orientation:                         
 ---------------------------------------------------------------------
 Center     Atomic      Atomic             Coordinates (Angstroms)
 Number     Number       Type             X           Y           Z
 ---------------------------------------------------------------------
      1          6           0        0.253870    1.524031   -0.492900
      2          6           0        0.253870    0.689321    0.553873
      3          6           0       -0.253870   -0.689321    0.553873
      4          6           0       -0.253870   -1.524031   -0.492900
      5          1           0        0.663936    2.525976   -0.420887
      6          1           0       -0.167403    1.237810   -1.452043
      7          1           0        0.640595    1.047836    1.507095
      8          1           0       -0.640595   -1.047836    1.507095
      9          1           0       -0.663936   -2.525976   -0.420887
     10          1           0        0.167403   -1.237810   -1.452043
 ---------------------------------------------------------------------
 Rotational constants (GHZ):          21.5317437           5.6043551           4.5348915
 Standard basis: 6-31G(d,p) (6D, 7F)
 There are    45 symmetry adapted cartesian basis functions of A   symmetry.
 There are    45 symmetry adapted cartesian basis functions of B   symmetry.
 There are    45 symmetry adapted basis functions of A   symmetry.
 There are    45 symmetry adapted basis functions of B   symmetry.
    90 basis functions,   154 primitive gaussians,    90 cartesian basis functions
    15 alpha electrons       15 beta electrons
       nuclear repulsion energy       104.6658694153 Hartrees.
 NAtoms=   10 NActive=   10 NUniq=    5 SFac= 4.00D+00 NAtFMM=   60 NAOKFM=F Big=F
 Integral buffers will be    131072 words long.
 Raffenetti 2 integral format.
 Two-electron integral symmetry is turned on.
 One-electron integrals computed using PRISM.
 NBasis=    90 RedAO= T EigKep=  3.26D-03  NBF=    45    45
 NBsUse=    90 1.00D-06 EigRej= -1.00D+00 NBFU=    45    45
 Initial guess from the checkpoint file:  "cis-C=CC=C.chk"
 B after Tr=    -0.000000   -0.000000   -0.000000
         Rot=    0.999993   -0.000000   -0.000000    0.003650 Ang=   0.42 deg.
 Initial guess orbital symmetries:
       Occupied  (A) (B) (B) (A) (A) (B) (A) (B) (A) (A) (B) (B)
                 (A) (B) (A)
       Virtual   (B) (A) (A) (A) (B) (B) (B) (A) (A) (B) (B) (A)
                 (A) (B) (B) (A) (A) (B) (A) (B) (A) (A) (B) (B)
                 (A) (A) (B) (B) (B) (A) (B) (B) (A) (B) (A) (A)
                 (B) (B) (A) (A) (A) (B) (A) (B) (A) (B) (A) (B)
                 (B) (A) (B) (A) (B) (A) (B) (A) (B) (B) (A) (A)
                 (A) (B) (B) (A) (B) (A) (B) (A) (B) (A) (B) (A)
                 (B) (A) (B)
 ExpMin= 1.61D-01 ExpMax= 3.05D+03 ExpMxC= 4.57D+02 IAcc=3 IRadAn=         7 AccDes= 0.00D+00
 Harris functional with IExCor=  402 and IRadAn=       7 diagonalized for initial guess.
 HarFok:  IExCor=  402 AccDes= 0.00D+00 IRadAn=         7 IDoV= 1 UseB2=F ITyADJ=14
 ICtDFT=  3500011 ScaDFX=  1.000000  1.000000  1.000000  1.000000
 FoFCou: FMM=F IPFlag=           0 FMFlag=      100000 FMFlg1=           0
         NFxFlg=           0 DoJE=T BraDBF=F KetDBF=T FulRan=T
         wScrn=  0.000000 ICntrl=       500 IOpCl=  0 I1Cent=   200000004 NGrid=           0
         NMat0=    1 NMatS0=      1 NMatT0=    0 NMatD0=    1 NMtDS0=    0 NMtDT0=    0
 Petite list used in FoFCou.
 Keep R1 ints in memory in symmetry-blocked form, NReq=15742186.
 Requested convergence on RMS density matrix=1.00D-08 within 128 cycles.
 Requested convergence on MAX density matrix=1.00D-06.
 Requested convergence on             energy=1.00D-06.
 No special actions if energy rises.
 Integral accuracy reduced to 1.0D-05 until final iterations.
 Initial convergence to 1.0D-05 achieved.  Increase integral accuracy.
 SCF Done:  E(RB3LYP) =  -155.996041459     A.U. after    8 cycles
            NFock=  8  Conv=0.33D-08     -V/T= 2.0102
 Calling FoFJK, ICntrl=      2127 FMM=F ISym2X=1 I1Cent= 0 IOpClX= 0 NMat=1 NMatS=1 NMatT=0.
 ***** Axes restored to original set *****
 -------------------------------------------------------------------
 Center     Atomic                   Forces (Hartrees/Bohr)
 Number     Number              X              Y              Z
[...]
     8   1     0.03   0.00   0.00    -0.03   0.02  -0.00    -0.58   0.06  -0.18
     9   1    -0.49   0.21  -0.11     0.52  -0.20   0.14     0.18  -0.04   0.16
    10   1    -0.55   0.19  -0.19     0.51  -0.19   0.17    -0.30   0.00  -0.15
                     10                     11                     12
                     ?I                     ?J                     ?K
 Frequencies --   1036.4096              1071.5624              1109.6197
 Red. masses --      1.0866                 1.4689                 1.5930
 Frc consts  --      0.6877                 0.9937                 1.1556
 IR Inten    --     24.3016                 0.0125                 5.9119
  Atom  AN      X      Y      Z        X      Y      Z        X      Y      Z
     1   6     0.01   0.00  -0.00    -0.03  -0.02  -0.07    -0.05  -0.14  -0.02
     2   6    -0.06   0.02   0.01     0.12   0.08   0.07     0.02   0.10   0.09
     3   6    -0.06   0.02  -0.01    -0.12  -0.08   0.07     0.02   0.10  -0.09
     4   6     0.01   0.00   0.00     0.03   0.02  -0.07    -0.05  -0.14   0.02
     5   1    -0.23   0.10   0.04     0.07  -0.07   0.26     0.10  -0.25   0.58
     6   1     0.32  -0.15  -0.09    -0.02   0.40  -0.20     0.08   0.38  -0.22
     7   1     0.52  -0.23  -0.13    -0.06   0.65  -0.07     0.18   0.34  -0.07
     8   1     0.52  -0.23   0.13     0.06  -0.65  -0.07     0.18   0.34   0.07
     9   1    -0.23   0.10  -0.04    -0.07   0.07   0.26     0.10  -0.25  -0.58
    10   1     0.32  -0.15   0.09     0.02  -0.40  -0.20     0.08   0.38   0.22
                     13                     14                     15
                     ?L                     ?M                     ?N
 Frequencies --   1316.1842              1350.6170              1446.9585
 Red. masses --      1.2710                 1.2928                 1.1581
 Frc consts  --      1.2972                 1.3895                 1.4285
 IR Inten    --      0.3630                 0.1179                 1.3675
  Atom  AN      X      Y      Z        X      Y      Z        X      Y      Z
     1   6     0.03  -0.01   0.10     0.03   0.00   0.09    -0.00   0.01  -0.03
     2   6    -0.03  -0.01  -0.06    -0.03  -0.03  -0.08     0.01   0.06  -0.06
     3   6    -0.03  -0.01   0.06     0.03   0.03  -0.08     0.01   0.06   0.06
     4   6     0.03  -0.01  -0.10    -0.03  -0.00   0.09    -0.00   0.01   0.03
     5   1     0.02  -0.01   0.06     0.01   0.00   0.05     0.11  -0.09   0.50
     6   1    -0.04  -0.30   0.22    -0.05  -0.33   0.23    -0.11  -0.42   0.17
     7   1     0.13   0.58  -0.36     0.10   0.56  -0.37    -0.08  -0.27   0.10
     8   1     0.13   0.58   0.36    -0.10  -0.56  -0.37    -0.08  -0.27  -0.10
     9   1     0.02  -0.01  -0.06    -0.01  -0.00   0.05     0.11  -0.09  -0.50
    10   1    -0.04  -0.30  -0.22     0.05   0.33   0.23    -0.11  -0.42  -0.17
                     16                     17                     18
                     ?M                     ?N                     ?N
 Frequencies --   1475.5204              1692.2397              1715.4525
 Red. masses --      1.2677                 4.8923                 3.7829
 Frc consts  --      1.6261                 8.2545                 6.5589
 IR Inten    --      6.9423                 1.7010                 2.1428
  Atom  AN      X      Y      Z        X      Y      Z        X      Y      Z
     1   6    -0.01   0.00  -0.04    -0.01  -0.40   0.44     0.01   0.29  -0.36
     2   6     0.03   0.11  -0.03     0.09   0.59  -0.39    -0.03  -0.32   0.40
     3   6    -0.03  -0.11  -0.03    -0.09  -0.59  -0.39    -0.03  -0.32  -0.40
     4   6     0.01  -0.00  -0.04     0.01   0.40   0.44     0.01   0.29   0.36
     5   1     0.14  -0.11   0.57    -0.22  -0.30  -0.62     0.28   0.18   0.55
     6   1    -0.12  -0.42   0.15     0.22   0.90   0.02    -0.26  -0.61  -0.03
     7   1    -0.05  -0.17   0.11    -0.24  -0.37   0.03     0.28   0.69  -0.05
     8   1     0.05   0.17   0.11     0.24   0.37   0.03     0.28   0.69   0.05
     9   1    -0.14   0.11   0.57     0.22   0.30  -0.62     0.28   0.18  -0.55
    10   1     0.12   0.42   0.15    -0.22  -0.90   0.02    -0.26  -0.61   0.03
                     19                     20                     21
                     ?I                     ?H                     ?I
 Frequencies --   3138.3386              3149.7800              3157.3729
 Red. masses --      1.0835                 1.0739                 1.0640
 Frc consts  --      6.2875                 6.2772                 6.2492
 IR Inten    --     11.8992                32.5182                 6.0033
  Atom  AN      X      Y      Z        X      Y      Z        X      Y      Z
     1   6     0.00   0.01  -0.00     0.00   0.02  -0.02    -0.00   0.03  -0.04
     2   6    -0.02  -0.02  -0.05    -0.02  -0.02  -0.04     0.00  -0.00   0.01
     3   6    -0.02  -0.02   0.05     0.02   0.02  -0.04     0.00  -0.00  -0.01
     4   6     0.00   0.01   0.00    -0.00  -0.02  -0.02    -0.00   0.03   0.04
     5   1    -0.05  -0.13  -0.01    -0.12  -0.29  -0.03    -0.17  -0.42  -0.04
     6   1     0.02   0.02   0.04     0.10   0.08   0.23     0.22   0.15   0.49
     7   1     0.25   0.24   0.63     0.21   0.20   0.53    -0.04  -0.04  -0.10
     8   1     0.25   0.24  -0.63    -0.21  -0.20   0.53    -0.04  -0.04   0.10
     9   1    -0.05  -0.13   0.01     0.12   0.29  -0.03    -0.17  -0.42   0.04
    10   1     0.02   0.02  -0.04    -0.10  -0.08   0.23     0.22   0.15  -0.49
                     22                     23                     24
                     ?H                     ?I                     ?H
 Frequencies --   3162.2836              3243.3616              3245.4302
 Red. masses --      1.0756                 1.1161                 1.1165
 Frc consts  --      6.3373                 6.9177                 6.9285
 IR Inten    --      0.2230                20.9630                 7.9650
  Atom  AN      X      Y      Z        X      Y      Z        X      Y      Z
     1   6    -0.00   0.02  -0.04    -0.03  -0.05  -0.04    -0.03  -0.05  -0.04
     2   6     0.01   0.01   0.03    -0.00  -0.00  -0.01    -0.00  -0.00  -0.01
     3   6    -0.01  -0.01   0.03    -0.00  -0.00   0.01     0.00   0.00  -0.01
     4   6     0.00  -0.02  -0.04    -0.03  -0.05   0.04     0.03   0.05  -0.04
     5   1    -0.14  -0.34  -0.03     0.21   0.52   0.04     0.21   0.51   0.04
     6   1     0.19   0.14   0.43     0.18   0.12   0.42     0.19   0.12   0.43
     7   1    -0.14  -0.13  -0.35     0.03   0.02   0.06     0.03   0.03   0.07
     8   1     0.14   0.13  -0.35     0.03   0.02  -0.06    -0.03  -0.03   0.07
     9   1     0.14   0.34  -0.03     0.21   0.52  -0.04    -0.21  -0.51   0.04
    10   1    -0.19  -0.14   0.43     0.18   0.12  -0.42    -0.19  -0.12   0.43

 -------------------
 - Thermochemistry -
 -------------------
 Temperature  3000.000 Kelvin.  Pressure   0.98700 Atm.
 Atom     1 has atomic number  6 and mass  12.00000
 Atom     2 has atomic number  6 and mass  12.00000
 Atom     3 has atomic number  6 and mass  12.00000
 Atom     4 has atomic number  6 and mass  12.00000
 Atom     5 has atomic number  1 and mass   1.00783
 Atom     6 has atomic number  1 and mass   1.00783
 Atom     7 has atomic number  1 and mass   1.00783
 Atom     8 has atomic number  1 and mass   1.00783
 Atom     9 has atomic number  1 and mass   1.00783
 Atom    10 has atomic number  1 and mass   1.00783
 Molecular mass:    54.04695 amu.
 Principal axes and moments of inertia in atomic units:
                           1         2         3
     Eigenvalues --    83.89671 321.75469 397.93861
           X            0.20498   0.00000   0.97877
           Y            0.97877   0.00000  -0.20498
           Z            0.00000   1.00000   0.00000
 This molecule is an asymmetric top.
 Rotational symmetry number  2.
 Rotational temperatures (Kelvin)      1.03239     0.26919     0.21766
 Rotational constants (GHZ):          21.51147     5.60906     4.53523
 Zero-point vibrational energy     223622.1 (Joules/Mol)
                                   53.44696 (Kcal/Mol)
 Warning -- explicit consideration of  24 degrees of freedom as
           vibrations may cause significant error
 Identified internal rotation modes:
   31
 Vibrational temperatures:    228.10   396.16   688.87   883.09  1090.74
          (Kelvin)           1281.00  1349.25  1350.32  1473.85  1491.16
                             1541.74  1596.50  1893.70  1943.24  2081.85
                             2122.94  2434.76  2468.15  4515.37  4531.83
                             4542.76  4549.82  4666.47  4669.45
 
 Zero-point correction=                           0.085173 (Hartree/Particle)
 Thermal correction to Energy=                    0.271147
 Thermal correction to Enthalpy=                  0.280648
 Thermal correction to Gibbs Free Energy=        -0.454054
 Sum of electronic and zero-point Energies=           -155.910874
 Sum of electronic and thermal Energies=              -155.724900
 Sum of electronic and thermal Enthalpies=            -155.715399
 Sum of electronic and thermal Free Energies=         -156.450101
 
                     E (Thermal)             CV                S
                      KCal/Mol        Cal/Mol-Kelvin    Cal/Mol-Kelvin
 Total                  170.148             50.766            153.677
 Corrected for 
 internal rot.          169.260             49.960            153.621
 Electronic               0.000              0.000              0.000
 Translational            8.942              2.981             49.380
 Rotational               8.942              2.981             29.394
 Vibrational            152.263             44.805             74.904
 Vibration     1          5.964              1.986              7.108
 Vibration     2          5.970              1.984              6.012
 Vibration     3          5.988              1.978              4.915
 Vibration     4          6.005              1.973              4.425
 Vibration     5          6.027              1.965              4.009
 Vibration     6          6.052              1.957              3.693
 Vibration     7          6.062              1.954              3.592
 Vibration     8          6.062              1.954              3.590
 Vibration     9          6.081              1.948              3.419
 Vibration    10          6.084              1.947              3.397
 Vibration    11          6.092              1.944              3.332
 Vibration    12          6.102              1.941              3.264
 Vibration    13          6.158              1.923              2.934
 Vibration    14          6.169              1.919              2.885
 Vibration    15          6.199              1.909              2.753
 Vibration    16          6.208              1.906              2.715
 Vibration    17          6.285              1.882              2.456
 Vibration    18          6.294              1.879              2.430
 Vibration    19          7.047              1.651              1.352
 Vibration    20          7.054              1.649              1.346
 Vibration    21          7.059              1.647              1.342
 Vibration    22          7.063              1.646              1.340
 Vibration    23          7.118              1.631              1.298
 Vibration    24          7.119              1.630              1.297
                       Q            Log10(Q)             Ln(Q)
 Total Bot       0.570453D+21         20.756220         47.792963
 Corrected for 
 Internal rot.   0.643363D+21         20.808456         47.913241
 Total V=0       0.446427D+25         24.649750         56.758148
 Corrected for 
 Internal rot.   0.503485D+25         24.701987         56.878426
 Vib (Bot)       0.189593D+06          5.277822         12.152635
 Vib (Bot)    1  0.131491D+02          1.118895          2.576352
 Vib (Bot)    2  0.756722D+01          0.878936          2.023826
 Vib (Bot)    3  0.434538D+01          0.638028          1.469114
 Vib (Bot)    4  0.338492D+01          0.529549          1.219331
 Vib (Bot)    5  0.273535D+01          0.437012          1.006258
 Vib (Bot)    6  0.232423D+01          0.366278          0.843387
 Vib (Bot)    7  0.220483D+01          0.343375          0.790650
 Vib (Bot)    8  0.220306D+01          0.343026          0.789846
 Vib (Bot)    9  0.201515D+01          0.304308          0.700694
 Vib (Bot)   10  0.199129D+01          0.299135          0.688783
 Vib (Bot)   11  0.192461D+01          0.284342          0.654721
 Vib (Bot)   12  0.185712D+01          0.268841          0.619029
 Vib (Bot)   13  0.155821D+01          0.192625          0.443535
 Vib (Bot)   14  0.151715D+01          0.181030          0.416836
 Vib (Bot)   15  0.141251D+01          0.149992          0.345370
 Vib (Bot)   16  0.138407D+01          0.141158          0.325029
 Vib (Bot)   17  0.119898D+01          0.078812          0.181470
 Vib (Bot)   18  0.118187D+01          0.072569          0.167097
 Vib (Bot)   19  0.605594D+00         -0.217819         -0.501546
 Vib (Bot)   20  0.602993D+00         -0.219688         -0.505849
 Vib (Bot)   21  0.601277D+00         -0.220925         -0.508700
 Vib (Bot)   22  0.600171D+00         -0.221725         -0.510540
 Vib (Bot)   23  0.582371D+00         -0.234800         -0.540648
 Vib (Bot)   24  0.581927D+00         -0.235131         -0.541409
 Vib (V=0)       0.148372D+10          9.171353         21.117820
 Vib (V=0)    1  0.136586D+02          1.135406          2.614368
 Vib (V=0)    2  0.808372D+01          0.907611          2.089852
 Vib (V=0)    3  0.487406D+01          0.687890          1.583926
 Vib (V=0)    4  0.392165D+01          0.593469          1.366513
 Vib (V=0)    5  0.328067D+01          0.515962          1.188047
 Vib (V=0)    6  0.287740D+01          0.459000          1.056887
 Vib (V=0)    7  0.276081D+01          0.441037          1.015525
 Vib (V=0)    8  0.275908D+01          0.440765          1.014899
 Vib (V=0)    9  0.257626D+01          0.410989          0.946337
 Vib (V=0)   10  0.255311D+01          0.407069          0.937310
 Vib (V=0)   11  0.248849D+01          0.395936          0.911677
 Vib (V=0)   12  0.242326D+01          0.384399          0.885112
 Vib (V=0)   13  0.213646D+01          0.329695          0.759151
 Vib (V=0)   14  0.209742D+01          0.321686          0.740709
 Vib (V=0)   15  0.199840D+01          0.300682          0.692345
 Vib (V=0)   16  0.197162D+01          0.294822          0.678853
 Vib (V=0)   17  0.179906D+01          0.255045          0.587263
 Vib (V=0)   18  0.178328D+01          0.251220          0.578456
 Vib (V=0)   19  0.128533D+01          0.109015          0.251016
 Vib (V=0)   20  0.128333D+01          0.108337          0.249456
 Vib (V=0)   21  0.128201D+01          0.107890          0.248426
 Vib (V=0)   22  0.128116D+01          0.107602          0.247763
 Vib (V=0)   23  0.126756D+01          0.102970          0.237098
 Vib (V=0)   24  0.126723D+01          0.102855          0.236832
 Electronic      0.100000D+01          0.000000          0.000000
 Translational   0.508171D+10          9.706010         22.348913
 Rotational      0.592091D+06          5.772388         13.291415
 ***** Axes restored to original set *****
 -------------------------------------------------------------------
 Center     Atomic                   Forces (Hartrees/Bohr)
 Number     Number              X              Y              Z
 -------------------------------------------------------------------
      1        6           0.000012453   -0.000002503   -0.000061645
      2        6          -0.000003424    0.000049200    0.000007474
      3        6           0.000003424   -0.000049200    0.000007474
      4        6          -0.000012453    0.000002503   -0.000061645
      5        1           0.000004516    0.000017870    0.000032064
      6        1          -0.000020698   -0.000011017    0.000051097
      7        1           0.000004117   -0.000006511   -0.000028991
      8        1          -0.000004117    0.000006511   -0.000028991
      9        1          -0.000004516   -0.000017870    0.000032064
     10        1           0.000020698    0.000011017    0.000051097
 -------------------------------------------------------------------
 Cartesian Forces:  Max     0.000061645 RMS     0.000028140
 FormGI is forming the generalized inverse of G from B-inverse, IUseBI=4.

 ----------------------------------------------------------------------

 Electric dipole moment (input orientation):
 (Debye = 10**-18 statcoulomb cm , SI units = C m)
                  (au)            (Debye)         (10**-30 SI)
   Tot        0.458215D-01      0.116467D+00      0.388491D+00
   x          0.000000D+00      0.000000D+00      0.000000D+00
   y          0.000000D+00      0.000000D+00      0.000000D+00
   z          0.458215D-01      0.116467D+00      0.388491D+00

 Dipole polarizability, Alpha (input orientation).
 (esu units = cm**3 , SI units = C**2 m**2 J**-1)
 Alpha(0;0):
               (au)            (10**-24 esu)      (10**-40 SI)
   iso        0.415620D+02      0.615885D+01      0.685264D+01
   aniso      0.372328D+02      0.551733D+01      0.613886D+01
   xx         0.185145D+02      0.274356D+01      0.305263D+01
   yx         0.282616D+00      0.418793D-01      0.465970D-01
   yy         0.610622D+02      0.904848D+01      0.100678D+02
   zx         0.000000D+00      0.000000D+00      0.000000D+00
   zy         0.000000D+00      0.000000D+00      0.000000D+00
   zz         0.451093D+02      0.668450D+01      0.743751D+01

 ----------------------------------------------------------------------

 Dipole orientation:
     6          0.17119449         -2.91285570         -0.93065086
     6         -0.17557774         -1.37777191          1.04980115
     6          0.17557774          1.37777191          1.04980115
     6         -0.17119449          2.91285570         -0.93065086
     1         -0.16456682         -4.93138031         -0.79156362
     1          0.82238637         -2.20474542         -2.74456854
     1         -0.72959437         -2.20651221          2.85226178
     1          0.72959437          2.20651221          2.85226178
     1          0.16456682          4.93138031         -0.79156362
     1         -0.82238637          2.20474542         -2.74456854

 Electric dipole moment (dipole orientation):
 (Debye = 10**-18 statcoulomb cm , SI units = C m)
                  (au)            (Debye)         (10**-30 SI)
   Tot        0.458215D-01      0.116467D+00      0.388491D+00
   x          0.000000D+00      0.000000D+00      0.000000D+00
   y          0.000000D+00      0.000000D+00      0.000000D+00
   z          0.458215D-01      0.116467D+00      0.388491D+00

 Dipole polarizability, Alpha (dipole orientation).
 (esu units = cm**3 , SI units = C**2 m**2 J**-1)
 Alpha(0;0):
               (au)            (10**-24 esu)      (10**-40 SI)
   iso        0.415620D+02      0.615885D+01      0.685264D+01
   aniso      0.372328D+02      0.551733D+01      0.613886D+01
   xx         0.185145D+02      0.274356D+01      0.305263D+01
   yx         0.282616D+00      0.418793D-01      0.465970D-01
   yy         0.610622D+02      0.904848D+01      0.100678D+02
   zx         0.000000D+00      0.000000D+00      0.000000D+00
   zy         0.000000D+00      0.000000D+00      0.000000D+00
   zz         0.451093D+02      0.668450D+01      0.743751D+01

 ----------------------------------------------------------------------

 This type of calculation cannot be archived.


 THERE'S NOTHING SO GREAT AS THE GREAT OUTDOORS.

                                       -- ZIGGY
 Job cpu time:       0 days  0 hours  0 minutes  0.4 seconds.
 Elapsed time:       0 days  0 hours  0 minutes  0.4 seconds.
 File lengths (MBytes):  RWF=      6 Int=      0 D2E=      0 Chk=      2 Scr=      1
 Normal termination of Gaussian 16 at Mon Nov  7 09:17:20 2022.
