 Entering Gaussian System, Link 0=g16
 Initial command:
 /software//g16/l1.exe "/home/tmp/g16/Gau-3586090.inp" -scrdir="/home/tmp/g16/"
 Entering Link 1 = /software//g16/l1.exe PID=   3586091.
  
 Copyright (c) 1988-2019, Gaussian, Inc.  All Rights Reserved.
  
 This is part of the Gaussian(R) 16 program.  It is based on
 the Gaussian(R) 09 system (copyright 2009, Gaussian, Inc.),
 the Gaussian(R) 03 system (copyright 2003, Gaussian, Inc.),
 the Gaussian(R) 98 system (copyright 1998, Gaussian, Inc.),
 the Gaussian(R) 94 system (copyright 1995, Gaussian, Inc.),
 the Gaussian 92(TM) system (copyright 1992, Gaussian, Inc.),
 the Gaussian 90(TM) system (copyright 1990, Gaussian, Inc.),
 the Gaussian 88(TM) system (copyright 1988, Gaussian, Inc.),
 the Gaussian 86(TM) system (copyright 1986, Carnegie Mellon
 University), and the Gaussian 82(TM) system (copyright 1983,
 Carnegie Mellon University). Gaussian is a federally registered
 trademark of Gaussian, Inc.
  
 This software contains proprietary and confidential information,
 including trade secrets, belonging to Gaussian, Inc.
  
 This software is provided under written license and may be
 used, copied, transmitted, or stored only in accord with that
 written license.
  
 The following legend is applicable only to US Government
 contracts under FAR:
  
                    RESTRICTED RIGHTS LEGEND
  
 Use, reproduction and disclosure by the US Government is
 subject to restrictions as set forth in subparagraphs (a)
 and (c) of the Commercial Computer Software - Restricted
 Rights clause in FAR 52.227-19.
  
 Gaussian, Inc.
 340 Quinnipiac St., Bldg. 40, Wallingford CT 06492
  
  
 ---------------------------------------------------------------
 Warning -- This program may not be used in any manner that
 competes with the business of Gaussian, Inc. or will provide
 assistance to any competitor of Gaussian, Inc.  The licensee
 of this program is prohibited from giving any competitor of
 Gaussian, Inc. access to this program.  By using this program,
 the user acknowledges that Gaussian, Inc. is engaged in the
 business of creating and licensing software in the field of
 computational chemistry and represents and warrants to the
 licensee that it is not a competitor of Gaussian, Inc. and that
 it will not use this program in any manner prohibited above.
 ---------------------------------------------------------------
  

 Cite this work as:
 Gaussian 16, Revision C.01,
 M. J. Frisch, G. W. Trucks, H. B. Schlegel, G. E. Scuseria, 
 M. A. Robb, J. R. Cheeseman, G. Scalmani, V. Barone, 
 G. A. Petersson, H. Nakatsuji, X. Li, M. Caricato, A. V. Marenich, 
 J. Bloino, B. G. Janesko, R. Gomperts, B. Mennucci, H. P. Hratchian, 
 J. V. Ortiz, A. F. Izmaylov, J. L. Sonnenberg, D. Williams-Young, 
 F. Ding, F. Lipparini, F. Egidi, J. Goings, B. Peng, A. Petrone, 
 T. Henderson, D. Ranasinghe, V. G. Zakrzewski, J. Gao, N. Rega, 
 G. Zheng, W. Liang, M. Hada, M. Ehara, K. Toyota, R. Fukuda, 
 J. Hasegawa, M. Ishida, T. Nakajima, Y. Honda, O. Kitao, H. Nakai, 
 T. Vreven, K. Throssell, J. A. Montgomery, Jr., J. E. Peralta, 
 F. Ogliaro, M. J. Bearpark, J. J. Heyd, E. N. Brothers, K. N. Kudin, 
 V. N. Staroverov, T. A. Keith, R. Kobayashi, J. Normand, 
 K. Raghavachari, A. P. Rendell, J. C. Burant, S. S. Iyengar, 
 J. Tomasi, M. Cossi, J. M. Millam, M. Klene, C. Adamo, R. Cammi, 
 J. W. Ochterski, R. L. Martin, K. Morokuma, O. Farkas, 
 J. B. Foresman, and D. J. Fox, Gaussian, Inc., Wallingford CT, 2019.
 
 ******************************************
 Gaussian 16:  ES64L-G16RevC.01  3-Jul-2019
                 7-Nov-2022 
 ******************************************
 %nprocshared=8
 Will use up to    8 processors via shared memory.
 %chk=cis-CC=C(C)C.chk
 --------------------------------------------------------------------
 # opt freq=hinderedrotor B3LYP/6-31g(d,p) symm=veryloose press=0.987
 --------------------------------------------------------------------
 1/18=20,19=15,26=3,38=1,113=-987000/1,3;
 2/9=110,12=2,17=2,18=2,40=1/2;
 3/5=1,6=6,7=101,11=2,25=1,30=1,71=1,74=-5/1,2,3;
 4//1;
 5/5=2,38=5/2;
 6/7=2,8=2,9=2,10=2,28=1/1;
 7//1,2,3,16;
 1/18=20,19=15,26=3/3(2);
 2/9=110/2;
 99//99;
 2/9=110/2;
 3/5=1,6=6,7=101,11=2,25=1,30=1,71=1,74=-5/1,2,3;
 4/5=5,16=3,69=1/1;
 5/5=2,38=5/2;
 7//1,2,3,16;
 1/18=20,19=15,26=3/3(-5);
 2/9=110/2;
 6/7=2,8=2,9=2,10=2,19=2,28=1/1;
 99/9=1/99;
 --------------
 cis-CC=C(C)C_1
 --------------
 Symbolic Z-matrix:
 Charge =  0 Multiplicity = 1
 C                     1.9561    0.0946   -0.0492 
 C                     0.7164   -0.6314    0.3422 
 C                    -0.4772   -0.1281    0.0737 
 C                    -0.5636    1.1748   -0.6255 
 C                    -1.6699   -0.9078    0.4939 
 H                     1.8681    1.1261    0.3404 
 H                     1.9986    0.1353   -1.175 
 H                     2.8465   -0.442     0.3043 
 H                     0.8008   -1.5797    0.851 
 H                    -1.6105    1.4876   -0.7997 
 H                    -0.0458    1.0982   -1.5963 
 H                    -0.0193    1.9152   -0.0099 
 H                    -1.62     -1.9501    0.0649 
 H                    -2.5837   -0.3732    0.1832 
 H                    -1.5965   -1.0195    1.6021 
 

 GradGradGradGradGradGradGradGradGradGradGradGradGradGradGradGradGradGrad
 Berny optimization.
 Initialization pass.
                           ----------------------------
                           !    Initial Parameters    !
                           ! (Angstroms and Degrees)  !
 --------------------------                            --------------------------
 ! Name  Definition              Value          Derivative Info.                !
 --------------------------------------------------------------------------------
 ! R1    R(1,2)                  1.489          estimate D2E/DX2                !
 ! R2    R(1,6)                  1.1061         estimate D2E/DX2                !
 ! R3    R(1,7)                  1.1273         estimate D2E/DX2                !
 ! R4    R(1,8)                  1.0981         estimate D2E/DX2                !
 ! R5    R(2,3)                  1.3229         estimate D2E/DX2                !
 ! R6    R(2,9)                  1.0795         estimate D2E/DX2                !
 ! R7    R(3,4)                  1.4812         estimate D2E/DX2                !
 ! R8    R(3,5)                  1.4856         estimate D2E/DX2                !
 ! R9    R(4,10)                 1.1064         estimate D2E/DX2                !
 ! R10   R(4,11)                 1.1029         estimate D2E/DX2                !
 ! R11   R(4,12)                 1.1061         estimate D2E/DX2                !
 ! R12   R(5,13)                 1.1282         estimate D2E/DX2                !
 ! R13   R(5,14)                 1.1033         estimate D2E/DX2                !
 ! R14   R(5,15)                 1.1162         estimate D2E/DX2                !
 ! A1    A(2,1,6)              107.209          estimate D2E/DX2                !
 ! A2    A(2,1,7)              108.1492         estimate D2E/DX2                !
 ! A3    A(2,1,8)              110.6238         estimate D2E/DX2                !
 ! A4    A(6,1,7)              108.7277         estimate D2E/DX2                !
 ! A5    A(6,1,8)              114.0061         estimate D2E/DX2                !
 ! A6    A(7,1,8)              107.973          estimate D2E/DX2                !
 ! A7    A(1,2,3)              120.82           estimate D2E/DX2                !
 ! A8    A(1,2,9)              119.1518         estimate D2E/DX2                !
 ! A9    A(3,2,9)              120.0281         estimate D2E/DX2                !
 ! A10   A(2,3,4)              118.8879         estimate D2E/DX2                !
 ! A11   A(2,3,5)              117.858          estimate D2E/DX2                !
 ! A12   A(4,3,5)              123.2541         estimate D2E/DX2                !
 ! A13   A(3,4,10)             112.2221         estimate D2E/DX2                !
 ! A14   A(3,4,11)             109.0886         estimate D2E/DX2                !
 ! A15   A(3,4,12)             107.3008         estimate D2E/DX2                !
 ! A16   A(10,4,11)            108.9821         estimate D2E/DX2                !
 ! A17   A(10,4,12)            111.3462         estimate D2E/DX2                !
 ! A18   A(11,4,12)            107.7791         estimate D2E/DX2                !
 ! A19   A(3,5,13)             109.9867         estimate D2E/DX2                !
 ! A20   A(3,5,14)             109.3277         estimate D2E/DX2                !
 ! A21   A(3,5,15)             106.2924         estimate D2E/DX2                !
 ! A22   A(13,5,14)            112.1589         estimate D2E/DX2                !
 ! A23   A(13,5,15)            106.3885         estimate D2E/DX2                !
 ! A24   A(14,5,15)            112.4899         estimate D2E/DX2                !
 ! D1    D(6,1,2,3)             51.8575         estimate D2E/DX2                !
 ! D2    D(6,1,2,9)           -128.1473         estimate D2E/DX2                !
 ! D3    D(7,1,2,3)            -65.2231         estimate D2E/DX2                !
 ! D4    D(7,1,2,9)            114.772          estimate D2E/DX2                !
 ! D5    D(8,1,2,3)            176.7213         estimate D2E/DX2                !
 ! D6    D(8,1,2,9)             -3.2835         estimate D2E/DX2                !
 ! D7    D(1,2,3,4)             -0.0009         estimate D2E/DX2                !
 ! D8    D(1,2,3,5)           -179.9984         estimate D2E/DX2                !
 ! D9    D(9,2,3,4)           -179.996          estimate D2E/DX2                !
 ! D10   D(9,2,3,5)              0.0065         estimate D2E/DX2                !
 ! D11   D(2,3,4,10)           179.6181         estimate D2E/DX2                !
 ! D12   D(2,3,4,11)            58.7413         estimate D2E/DX2                !
 ! D13   D(2,3,4,12)           -57.7598         estimate D2E/DX2                !
 ! D14   D(5,3,4,10)            -0.3844         estimate D2E/DX2                !
 ! D15   D(5,3,4,11)          -121.2613         estimate D2E/DX2                !
 ! D16   D(5,3,4,12)           122.2376         estimate D2E/DX2                !
 ! D17   D(2,3,5,13)           -55.2221         estimate D2E/DX2                !
 ! D18   D(2,3,5,14)          -178.7874         estimate D2E/DX2                !
 ! D19   D(2,3,5,15)            59.5553         estimate D2E/DX2                !
 ! D20   D(4,3,5,13)           124.7804         estimate D2E/DX2                !
 ! D21   D(4,3,5,14)             1.2152         estimate D2E/DX2                !
 ! D22   D(4,3,5,15)          -120.4422         estimate D2E/DX2                !
 --------------------------------------------------------------------------------
 Trust Radius=3.00D-01 FncErr=1.00D-07 GrdErr=1.00D-06 EigMax=2.50D+02 EigMin=1.00D-04
 Number of steps in this run=     70 maximum allowed number of steps=    100.
 GradGradGradGradGradGradGradGradGradGradGradGradGradGradGradGradGradGrad

                          Input orientation:                          
 ---------------------------------------------------------------------
 Center     Atomic      Atomic             Coordinates (Angstroms)
 Number     Number       Type             X           Y           Z
 ---------------------------------------------------------------------
      1          6           0        1.956100    0.094600   -0.049200
      2          6           0        0.716400   -0.631400    0.342200
      3          6           0       -0.477200   -0.128100    0.073700
      4          6           0       -0.563600    1.174800   -0.625500
      5          6           0       -1.669900   -0.907800    0.493900
      6          1           0        1.868100    1.126100    0.340400
      7          1           0        1.998600    0.135300   -1.175000
      8          1           0        2.846500   -0.442000    0.304300
      9          1           0        0.800800   -1.579700    0.851000
     10          1           0       -1.610500    1.487600   -0.799700
     11          1           0       -0.045800    1.098200   -1.596300
     12          1           0       -0.019300    1.915200   -0.009900
     13          1           0       -1.620000   -1.950100    0.064900
     14          1           0       -2.583700   -0.373200    0.183200
     15          1           0       -1.596500   -1.019500    1.602100
 ---------------------------------------------------------------------
                    Distance matrix (angstroms):
                    1          2          3          4          5
     1  C    0.000000
     2  C    1.489002   0.000000
     3  C    2.446559   1.322907   0.000000
     4  C    2.801400   2.416030   1.481180   0.000000
     5  C    3.801005   2.407039   1.485609   2.610398   0.000000
     6  H    1.106130   2.101243   2.672934   2.616964   4.083841
     7  H    1.127337   2.129263   2.785358   2.819110   4.163073
     8  H    1.098050   2.138840   3.346445   3.886818   4.544314
     9  H    2.224491   1.079478   2.084376   3.410119   2.585213
    10  H    3.901837   3.347919   2.158167   1.106431   2.723026
    11  H    2.721826   2.707443   2.116322   1.102922   3.321246
    12  H    2.686696   2.674023   2.095647   1.106082   3.308719
    13  H    4.120960   2.697152   2.150756   3.370109   1.128238
    14  H    4.569752   3.314002   2.123536   2.670413   1.103341
    15  H    4.072957   2.662231   2.093665   3.293028   1.116231
                    6          7          8          9         10
     6  H    0.000000
     7  H    1.815255   0.000000
     8  H    1.848650   1.800149   0.000000
     9  H    2.953167   2.912151   2.403774   0.000000
    10  H    3.678474   3.872360   4.980665   4.236450   0.000000
    11  H    2.722976   2.298748   3.788126   3.725206   1.798469
    12  H    2.075492   2.932136   3.723966   3.691617   1.827168
    13  H    4.658943   4.356663   4.720307   2.572046   3.544771
    14  H    4.700121   4.806324   5.431986   3.654646   2.318574
    15  H    4.266021   4.687280   4.664551   2.573912   3.471943
                   11         12         13         14         15
    11  H    0.000000
    12  H    1.784617   0.000000
    13  H    3.811801   4.184302   0.000000
    14  H    3.431119   3.442413   1.851844   0.000000
    15  H    4.137522   3.701158   1.797096   1.845412   0.000000
 Stoichiometry    C5H10
 Framework group  C1[X(C5H10)]
 Deg. of freedom    39
 Full point group                 C1      NOp   1
 Largest Abelian subgroup         C1      NOp   1
 Largest concise Abelian subgroup C1      NOp   1
                         Standard orientation:                         
 ---------------------------------------------------------------------
 Center     Atomic      Atomic             Coordinates (Angstroms)
 Number     Number       Type             X           Y           Z
 ---------------------------------------------------------------------
      1          6           0       -1.953209   -0.238679   -0.006941
      2          6           0       -0.571455   -0.793539   -0.003238
      3          6           0        0.480856    0.008156   -0.000058
      4          6           0        0.264132    1.473395   -0.000252
      5          6           0        1.829014   -0.615937    0.003495
      6          1           0       -2.011393    0.489097   -0.837894
      7          1           0       -2.114501    0.308500    0.965410
      8          1           0       -2.694278   -1.046639   -0.068029
      9          1           0       -0.434788   -1.864331   -0.003092
     10          1           0        1.216086    2.037203    0.009406
     11          1           0       -0.326162    1.750814    0.889146
     12          1           0       -0.338789    1.716612   -0.895098
     13          1           0        1.922481   -1.327044    0.874420
     14          1           0        2.597622    0.175268    0.027917
     15          1           0        1.887695   -1.239857   -0.920222
 ---------------------------------------------------------------------
 Rotational constants (GHZ):           8.1206146           3.8793939           2.7655024
 Standard basis: 6-31G(d,p) (6D, 7F)
 There are   125 symmetry adapted cartesian basis functions of A   symmetry.
 There are   125 symmetry adapted basis functions of A   symmetry.
   125 basis functions,   210 primitive gaussians,   125 cartesian basis functions
    20 alpha electrons       20 beta electrons
       nuclear repulsion energy       177.8001309760 Hartrees.
 NAtoms=   15 NActive=   15 NUniq=   15 SFac= 1.00D+00 NAtFMM=   60 NAOKFM=F Big=F
 Integral buffers will be    131072 words long.
 Raffenetti 2 integral format.
 Two-electron integral symmetry is turned on.
 One-electron integrals computed using PRISM.
 NBasis=   125 RedAO= T EigKep=  2.36D-03  NBF=   125
 NBsUse=   125 1.00D-06 EigRej= -1.00D+00 NBFU=   125
 ExpMin= 1.61D-01 ExpMax= 3.05D+03 ExpMxC= 4.57D+02 IAcc=3 IRadAn=         5 AccDes= 0.00D+00
 Harris functional with IExCor=  402 and IRadAn=       5 diagonalized for initial guess.
 HarFok:  IExCor=  402 AccDes= 0.00D+00 IRadAn=         5 IDoV= 1 UseB2=F ITyADJ=14
 ICtDFT=  3500011 ScaDFX=  1.000000  1.000000  1.000000  1.000000
 FoFCou: FMM=F IPFlag=           0 FMFlag=      100000 FMFlg1=           0
         NFxFlg=           0 DoJE=T BraDBF=F KetDBF=T FulRan=T
         wScrn=  0.000000 ICntrl=       500 IOpCl=  0 I1Cent=   200000004 NGrid=           0
         NMat0=    1 NMatS0=      1 NMatT0=    0 NMatD0=    1 NMtDS0=    0 NMtDT0=    0
 Petite list used in FoFCou.
 Requested convergence on RMS density matrix=1.00D-08 within 128 cycles.
 Requested convergence on MAX density matrix=1.00D-06.
 Requested convergence on             energy=1.00D-06.
 No special actions if energy rises.
 Integral accuracy reduced to 1.0D-05 until final iterations.
 Initial convergence to 1.0D-05 achieved.  Increase integral accuracy.
 SCF Done:  E(RB3LYP) =  -196.538616634     A.U. after   13 cycles
            NFock= 13  Conv=0.24D-08     -V/T= 2.0097

 **********************************************************************

            Population analysis using the SCF Density.

 **********************************************************************

 Orbital symmetries:
       Occupied  (A) (A) (A) (A) (A) (A) (A) (A) (A) (A) (A) (A)
                 (A) (A) (A) (A) (A) (A) (A) (A)
       Virtual   (A) (A) (A) (A) (A) (A) (A) (A) (A) (A) (A) (A)
                 (A) (A) (A) (A) (A) (A) (A) (A) (A) (A) (A) (A)
                 (A) (A) (A) (A) (A) (A) (A) (A) (A) (A) (A) (A)
                 (A) (A) (A) (A) (A) (A) (A) (A) (A) (A) (A) (A)
                 (A) (A) (A) (A) (A) (A) (A) (A) (A) (A) (A) (A)
                 (A) (A) (A) (A) (A) (A) (A) (A) (A) (A) (A) (A)
                 (A) (A) (A) (A) (A) (A) (A) (A) (A) (A) (A) (A)
                 (A) (A) (A) (A) (A) (A) (A) (A) (A) (A) (A) (A)
                 (A) (A) (A) (A) (A) (A) (A) (A) (A)
 The electronic state is 1-A.
 Alpha  occ. eigenvalues --  -10.17712 -10.17695 -10.17463 -10.16989 -10.15615
 Alpha  occ. eigenvalues --   -0.81445  -0.72188  -0.68995  -0.61822  -0.50036
 Alpha  occ. eigenvalues --   -0.45764  -0.43350  -0.42623  -0.39210  -0.38229
 Alpha  occ. eigenvalues --   -0.37730  -0.36531  -0.34062  -0.32128  -0.21487
 Alpha virt. eigenvalues --    0.03067   0.09165   0.11189   0.13442   0.13594
 Alpha virt. eigenvalues --    0.14543   0.18443   0.18916   0.19728   0.21174
 Alpha virt. eigenvalues --    0.25232   0.26782   0.27056   0.33920   0.38505
 Alpha virt. eigenvalues --    0.51093   0.52150   0.52733   0.57227   0.57782
 Alpha virt. eigenvalues --    0.58623   0.63092   0.65386   0.65880   0.68843
 Alpha virt. eigenvalues --    0.74891   0.76406   0.78765   0.81110   0.82560
 Alpha virt. eigenvalues --    0.84304   0.85486   0.86693   0.89100   0.90360
 Alpha virt. eigenvalues --    0.90896   0.91137   0.93319   0.94257   1.02319
 Alpha virt. eigenvalues --    1.16888   1.18780   1.24926   1.27513   1.33959
 Alpha virt. eigenvalues --    1.37078   1.39133   1.56079   1.66683   1.71271
 Alpha virt. eigenvalues --    1.76915   1.79753   1.83018   1.85092   1.88415
 Alpha virt. eigenvalues --    1.96548   1.99454   2.00271   2.01312   2.02239
 Alpha virt. eigenvalues --    2.05021   2.05371   2.06784   2.08434   2.09356
 Alpha virt. eigenvalues --    2.13232   2.13936   2.20451   2.20939   2.30998
 Alpha virt. eigenvalues --    2.34747   2.39818   2.40557   2.42252   2.47128
 Alpha virt. eigenvalues --    2.51936   2.56276   2.59963   2.64086   2.65051
 Alpha virt. eigenvalues --    2.69665   2.69995   2.77995   2.78795   2.81991
 Alpha virt. eigenvalues --    2.83748   2.90343   2.92260   3.02011   3.11991
 Alpha virt. eigenvalues --    3.16137   3.20135   3.25949   3.36518   3.39140
 Alpha virt. eigenvalues --    3.39985   3.41186   3.43222   3.44297   3.59581
 Alpha virt. eigenvalues --    4.19927   4.33619   4.47174   4.51607   4.74575
          Condensed to atoms (all electrons):
               1          2          3          4          5          6
     1  C    4.955456   0.368483  -0.044019  -0.020289   0.007824   0.379996
     2  C    0.368483   4.907886   0.709897  -0.064991  -0.059787  -0.037489
     3  C   -0.044019   0.709897   4.709864   0.392986   0.372297  -0.017449
     4  C   -0.020289  -0.064991   0.392986   4.992357  -0.072799   0.002796
     5  C    0.007824  -0.059787   0.372297  -0.072799   5.001103  -0.000039
     6  H    0.379996  -0.037489  -0.017449   0.002796  -0.000039   0.609027
     7  H    0.376615  -0.037572  -0.014281   0.001421  -0.000097  -0.033764
     8  H    0.375899  -0.025609   0.005445   0.000465  -0.000192  -0.024169
     9  H   -0.059857   0.380156  -0.044039   0.008161  -0.015558   0.004546
    10  H    0.000372   0.006845  -0.026369   0.369997  -0.008853   0.000069
    11  H    0.003346  -0.015749  -0.031436   0.377290   0.004293  -0.003918
    12  H    0.000963  -0.015691  -0.033450   0.376617   0.004596   0.010296
    13  H   -0.000029  -0.010618  -0.032978   0.003914   0.378449  -0.000038
    14  H   -0.000308   0.005527  -0.028620  -0.007147   0.366259   0.000008
    15  H   -0.000084  -0.011981  -0.036657   0.004290   0.379666   0.000104
               7          8          9         10         11         12
     1  C    0.376615   0.375899  -0.059857   0.000372   0.003346   0.000963
     2  C   -0.037572  -0.025609   0.380156   0.006845  -0.015749  -0.015691
     3  C   -0.014281   0.005445  -0.044039  -0.026369  -0.031436  -0.033450
     4  C    0.001421   0.000465   0.008161   0.369997   0.377290   0.376617
     5  C   -0.000097  -0.000192  -0.015558  -0.008853   0.004293   0.004596
     6  H   -0.033764  -0.024169   0.004546   0.000069  -0.003918   0.010296
     7  H    0.621309  -0.031224   0.003886   0.000013   0.008599  -0.002780
     8  H   -0.031224   0.605421  -0.006318  -0.000016  -0.000009   0.000107
     9  H    0.003886  -0.006318   0.657223  -0.000188  -0.000142  -0.000195
    10  H    0.000013  -0.000016  -0.000188   0.610945  -0.029784  -0.025721
    11  H    0.008599  -0.000009  -0.000142  -0.029784   0.601182  -0.032922
    12  H   -0.002780   0.000107  -0.000195  -0.025721  -0.032922   0.600482
    13  H    0.000100  -0.000008   0.003193   0.000057  -0.000168  -0.000131
    14  H    0.000008   0.000003   0.000290   0.006886   0.000057   0.000031
    15  H   -0.000040   0.000003   0.003156   0.000131  -0.000142  -0.000240
              13         14         15
     1  C   -0.000029  -0.000308  -0.000084
     2  C   -0.010618   0.005527  -0.011981
     3  C   -0.032978  -0.028620  -0.036657
     4  C    0.003914  -0.007147   0.004290
     5  C    0.378449   0.366259   0.379666
     6  H   -0.000038   0.000008   0.000104
     7  H    0.000100   0.000008  -0.000040
     8  H   -0.000008   0.000003   0.000003
     9  H    0.003193   0.000290   0.003156
    10  H    0.000057   0.006886   0.000131
    11  H   -0.000168   0.000057  -0.000142
    12  H   -0.000131   0.000031  -0.000240
    13  H    0.599057  -0.025856  -0.030345
    14  H   -0.025856   0.612547  -0.024921
    15  H   -0.030345  -0.024921   0.597475
 Mulliken charges:
               1
     1  C   -0.344369
     2  C   -0.099308
     3  C    0.118809
     4  C   -0.365069
     5  C   -0.357164
     6  H    0.110026
     7  H    0.107807
     8  H    0.100201
     9  H    0.065686
    10  H    0.095616
    11  H    0.119505
    12  H    0.118038
    13  H    0.115401
    14  H    0.095236
    15  H    0.119585
 Sum of Mulliken charges =  -0.00000
 Mulliken charges with hydrogens summed into heavy atoms:
               1
     1  C   -0.026335
     2  C   -0.033622
     3  C    0.118809
     4  C   -0.031910
     5  C   -0.026943
 Electronic spatial extent (au):  <R**2>=            506.0125
 Charge=             -0.0000 electrons
 Dipole moment (field-independent basis, Debye):
    X=              0.1018    Y=              0.1606    Z=              0.0116  Tot=              0.1905
 Quadrupole moment (field-independent basis, Debye-Ang):
   XX=            -33.1738   YY=            -32.2742   ZZ=            -33.6738
   XY=              0.3833   XZ=             -0.0301   YZ=             -0.0162
 Traceless Quadrupole moment (field-independent basis, Debye-Ang):
   XX=             -0.1332   YY=              0.7664   ZZ=             -0.6332
   XY=              0.3833   XZ=             -0.0301   YZ=             -0.0162
 Octapole moment (field-independent basis, Debye-Ang**2):
  XXX=              0.4685  YYY=             -3.0176  ZZZ=              0.0412  XYY=              0.1347
  XXY=              0.3814  XXZ=              0.4189  XZZ=             -0.2955  YZZ=              0.8373
  YYZ=              0.1172  XYZ=              0.0984
 Hexadecapole moment (field-independent basis, Debye-Ang**3):
 XXXX=           -435.9810 YYYY=           -220.5645 ZZZZ=            -55.9593 XXXY=             10.3127
 XXXZ=             -0.2177 YYYX=              2.2289 YYYZ=              0.1598 ZZZX=             -0.5017
 ZZZY=              0.0928 XXYY=           -103.3471 XXZZ=            -80.2058 YYZZ=            -45.0115
 XXYZ=             -0.2163 YYXZ=              0.5371 ZZXY=             -3.3107
 N-N= 1.778001309760D+02 E-N=-8.095387133131D+02  KE= 1.946488015702D+02
 Calling FoFJK, ICntrl=      2127 FMM=F ISym2X=0 I1Cent= 0 IOpClX= 0 NMat=1 NMatS=1 NMatT=0.
 ***** Axes restored to original set *****
 -------------------------------------------------------------------
 Center     Atomic                   Forces (Hartrees/Bohr)
 Number     Number              X              Y              Z
 -------------------------------------------------------------------
      1        6           0.002135467   -0.005181651   -0.013701360
      2        6           0.014749307   -0.001628738    0.000486248
      3        6           0.001543549   -0.011310524    0.000302578
      4        6          -0.008057623    0.009489240   -0.004768664
      5        6          -0.007875548   -0.013613776    0.006603479
      6        1           0.013404426   -0.004872233   -0.003987834
      7        1           0.004961736    0.004321233    0.016355931
      8        1           0.000249808    0.009322174    0.000150812
      9        1           0.001193364   -0.005835838    0.002836523
     10        1           0.009480964    0.001610575    0.001804421
     11        1          -0.003141878    0.005977483    0.001842232
     12        1          -0.007314582    0.003877614   -0.008631423
     13        1          -0.008250925    0.018661684    0.005796710
     14        1          -0.000122574   -0.011291618    0.006768243
     15        1          -0.012955491    0.000474373   -0.011857896
 -------------------------------------------------------------------
 Cartesian Forces:  Max     0.018661684 RMS     0.008053994

 GradGradGradGradGradGradGradGradGradGradGradGradGradGradGradGradGradGrad
 Berny optimization.
 FormGI is forming the generalized inverse of G from B-inverse, IUseBI=4.
 Internal  Forces:  Max     0.035015217 RMS     0.010909823
 Search for a local minimum.
 Step number   1 out of a maximum of   70
 All quantities printed in internal units (Hartrees-Bohrs-Radians)
 Mixed Optimization -- RFO/linear search
 Second derivative matrix not updated -- first step.
 ITU=  0
     Eigenvalues ---    0.00911   0.00956   0.01015   0.01477   0.01799
     Eigenvalues ---    0.03109   0.07356   0.07525   0.07533   0.07931
     Eigenvalues ---    0.07989   0.08068   0.16000   0.16000   0.16000
     Eigenvalues ---    0.16000   0.16000   0.16000   0.16000   0.16000
     Eigenvalues ---    0.16000   0.16000   0.22000   0.25000   0.25000
     Eigenvalues ---    0.30743   0.30831   0.31949   0.32981   0.33013
     Eigenvalues ---    0.33018   0.33315   0.33361   0.33559   0.33899
     Eigenvalues ---    0.33935   0.34435   0.36057   0.61213
 RFO step:  Lambda=-2.47893733D-02 EMin= 9.11434006D-03
 Linear search not attempted -- first point.
 Maximum step size (   0.300) exceeded in Quadratic search.
    -- Step size scaled by   0.964
 Iteration  1 RMS(Cart)=  0.12334844 RMS(Int)=  0.00424232
 Iteration  2 RMS(Cart)=  0.00521064 RMS(Int)=  0.00080896
 Iteration  3 RMS(Cart)=  0.00001649 RMS(Int)=  0.00080882
 Iteration  4 RMS(Cart)=  0.00000002 RMS(Int)=  0.00080882
 Variable       Old X    -DE/DX   Delta X   Delta X   Delta X     New X
                                 (Linear)    (Quad)   (Total)
    R1        2.81381   0.01934   0.00000   0.05172   0.05172   2.86553
    R2        2.09028  -0.00701   0.00000  -0.01905  -0.01905   2.07124
    R3        2.13036  -0.01599   0.00000  -0.04627  -0.04627   2.08409
    R4        2.07501  -0.00430   0.00000  -0.01141  -0.01141   2.06361
    R5        2.49993   0.03502   0.00000   0.05299   0.05299   2.55292
    R6        2.03992   0.00656   0.00000   0.01640   0.01640   2.05632
    R7        2.79902   0.02356   0.00000   0.06153   0.06153   2.86055
    R8        2.80739   0.02854   0.00000   0.07555   0.07555   2.88294
    R9        2.09085  -0.00880   0.00000  -0.02392  -0.02392   2.06693
   R10        2.08422  -0.00351   0.00000  -0.00945  -0.00945   2.07478
   R11        2.09019  -0.00581   0.00000  -0.01577  -0.01577   2.07442
   R12        2.13206  -0.01981   0.00000  -0.05747  -0.05747   2.07459
   R13        2.08501  -0.00728   0.00000  -0.01959  -0.01959   2.06542
   R14        2.10937  -0.01267   0.00000  -0.03548  -0.03548   2.07390
    A1        1.87115   0.01489   0.00000   0.07511   0.07363   1.94478
    A2        1.88756   0.00903   0.00000   0.05242   0.05068   1.93824
    A3        1.93075   0.00443   0.00000   0.02008   0.01947   1.95022
    A4        1.89766  -0.00874   0.00000  -0.03884  -0.04136   1.85630
    A5        1.98978  -0.01338   0.00000  -0.08005  -0.08037   1.90941
    A6        1.88448  -0.00532   0.00000  -0.02299  -0.02382   1.86067
    A7        2.10871   0.02168   0.00000   0.08535   0.08534   2.19405
    A8        2.07959  -0.01153   0.00000  -0.04631  -0.04631   2.03328
    A9        2.09489  -0.01014   0.00000  -0.03904  -0.03904   2.05585
   A10        2.07499   0.01184   0.00000   0.04153   0.04153   2.11651
   A11        2.05701   0.00960   0.00000   0.03368   0.03368   2.09069
   A12        2.15119  -0.02144   0.00000  -0.07520  -0.07520   2.07599
   A13        1.95865   0.00050   0.00000  -0.00124  -0.00127   1.95737
   A14        1.90395   0.00715   0.00000   0.04020   0.03915   1.94311
   A15        1.87275   0.01303   0.00000   0.06860   0.06757   1.94032
   A16        1.90210  -0.00468   0.00000  -0.02601  -0.02606   1.87604
   A17        1.94336  -0.00919   0.00000  -0.05392  -0.05394   1.88942
   A18        1.88110  -0.00663   0.00000  -0.02605  -0.02803   1.85307
   A19        1.91963   0.00434   0.00000   0.02357   0.02245   1.94208
   A20        1.90813   0.01090   0.00000   0.05069   0.04961   1.95774
   A21        1.85515   0.01426   0.00000   0.07917   0.07716   1.93231
   A22        1.95754  -0.01086   0.00000  -0.06570  -0.06590   1.89164
   A23        1.85683  -0.00432   0.00000  -0.00890  -0.01089   1.84594
   A24        1.96332  -0.01319   0.00000  -0.07171  -0.07350   1.88982
    D1        0.90508   0.00227   0.00000   0.02582   0.02670   0.93178
    D2       -2.23659   0.00210   0.00000   0.02217   0.02306  -2.21354
    D3       -1.13836   0.00001   0.00000   0.00477   0.00409  -1.13427
    D4        2.00315  -0.00015   0.00000   0.00112   0.00045   2.00359
    D5        3.08437  -0.00151   0.00000  -0.01036  -0.01057   3.07380
    D6       -0.05731  -0.00168   0.00000  -0.01401  -0.01421  -0.07152
    D7       -0.00002   0.00023   0.00000   0.00372   0.00375   0.00374
    D8       -3.14157   0.00017   0.00000   0.00238   0.00234  -3.13923
    D9       -3.14152   0.00039   0.00000   0.00740   0.00744  -3.13408
   D10        0.00011   0.00034   0.00000   0.00606   0.00603   0.00614
   D11        3.13493   0.00038   0.00000   0.00133   0.00136   3.13629
   D12        1.02523   0.00108   0.00000   0.00743   0.00821   1.03344
   D13       -1.00810  -0.00188   0.00000  -0.01996  -0.02073  -1.02883
   D14       -0.00671   0.00044   0.00000   0.00276   0.00276  -0.00395
   D15       -2.11641   0.00114   0.00000   0.00886   0.00962  -2.10679
   D16        2.13345  -0.00182   0.00000  -0.01853  -0.01932   2.11412
   D17       -0.96381  -0.00263   0.00000  -0.02325  -0.02399  -0.98780
   D18       -3.12043   0.00081   0.00000   0.00957   0.01018  -3.11024
   D19        1.03944   0.00207   0.00000   0.02026   0.02034   1.05978
   D20        2.17783  -0.00269   0.00000  -0.02466  -0.02537   2.15246
   D21        0.02121   0.00075   0.00000   0.00816   0.00880   0.03001
   D22       -2.10211   0.00201   0.00000   0.01884   0.01896  -2.08316
         Item               Value     Threshold  Converged?
 Maximum Force            0.035015     0.000450     NO 
 RMS     Force            0.010910     0.000300     NO 
 Maximum Displacement     0.479689     0.001800     NO 
 RMS     Displacement     0.124511     0.001200     NO 
 Predicted change in Energy=-1.356627D-02
 GradGradGradGradGradGradGradGradGradGradGradGradGradGradGradGradGradGrad

                          Input orientation:                          
 ---------------------------------------------------------------------
 Center     Atomic      Atomic             Coordinates (Angstroms)
 Number     Number       Type             X           Y           Z
 ---------------------------------------------------------------------
      1          6           0        2.077321    0.054909   -0.036214
      2          6           0        0.765896   -0.613414    0.328332
      3          6           0       -0.466741   -0.123276    0.072538
      4          6           0       -0.654155    1.199233   -0.639675
      5          6           0       -1.700055   -0.910794    0.504012
      6          1           0        2.121941    1.082466    0.342547
      7          1           0        2.197163    0.121750   -1.130497
      8          1           0        2.935495   -0.507222    0.338007
      9          1           0        0.834877   -1.572765    0.837225
     10          1           0       -1.710475    1.449521   -0.773410
     11          1           0       -0.189579    1.186527   -1.634383
     12          1           0       -0.173884    2.018005   -0.088331
     13          1           0       -1.695354   -1.922835    0.078603
     14          1           0       -2.629110   -0.416874    0.208223
     15          1           0       -1.713342   -1.045230    1.593123
 ---------------------------------------------------------------------
                    Distance matrix (angstroms):
                    1          2          3          4          5
     1  C    0.000000
     2  C    1.516372   0.000000
     3  C    2.552613   1.350948   0.000000
     4  C    3.022351   2.497853   1.513738   0.000000
     5  C    3.936115   2.490023   1.525587   2.618042   0.000000
     6  H    1.096050   2.171421   2.868448   2.947050   4.313561
     7  H    1.102853   2.171905   2.933210   3.087376   4.350411
     8  H    1.092014   2.172218   3.434109   4.093097   4.656045
     9  H    2.226182   1.088157   2.092838   3.475978   2.641045
    10  H    4.103146   3.406164   2.176280   1.093774   2.683841
    11  H    2.995586   2.829305   2.169328   1.097924   3.354553
    12  H    2.987371   2.825094   2.167194   1.097737   3.355285
    13  H    4.261189   2.799053   2.178976   3.368579   1.097825
    14  H    4.736330   3.402810   2.186423   2.689085   1.092973
    15  H    4.270150   2.816520   2.171680   3.338395   1.097458
                    6          7          8          9         10
     6  H    0.000000
     7  H    1.760254   0.000000
     8  H    1.785777   1.759899   0.000000
     9  H    2.991904   2.932428   2.407737   0.000000
    10  H    4.008429   4.142478   5.162280   4.266987   0.000000
    11  H    3.043387   2.661614   4.065119   3.843441   1.767361
    12  H    2.516286   3.209946   4.028247   3.842900   1.775843
    13  H    4.865515   4.560037   4.849331   2.664606   3.478353
    14  H    4.983828   5.037380   5.566852   3.705527   2.300201
    15  H    4.560749   4.906323   4.845251   2.709815   3.438644
                   11         12         13         14         15
    11  H    0.000000
    12  H    1.755528   0.000000
    13  H    3.856139   4.227642   0.000000
    14  H    3.452159   3.470549   1.776688   0.000000
    15  H    4.209441   3.818459   1.750510   1.775221   0.000000
 Stoichiometry    C5H10
 Framework group  C1[X(C5H10)]
 Deg. of freedom    39
 Full point group                 C1      NOp   1
 Largest Abelian subgroup         C1      NOp   1
 Largest concise Abelian subgroup C1      NOp   1
                         Standard orientation:                         
 ---------------------------------------------------------------------
 Center     Atomic      Atomic             Coordinates (Angstroms)
 Number     Number       Type             X           Y           Z
 ---------------------------------------------------------------------
      1          6           0       -2.070313   -0.180338   -0.005040
      2          6           0       -0.662197   -0.742989   -0.000972
      3          6           0        0.477060   -0.016935   -0.000625
      4          6           0        0.444238    1.496446    0.000379
      5          6           0        1.827769   -0.726161    0.000568
      6          1           0       -2.214803    0.531257   -0.826065
      7          1           0       -2.278505    0.373080    0.925910
      8          1           0       -2.821291   -0.970200   -0.073203
      9          1           0       -0.572706   -1.827440    0.005534
     10          1           0        1.448105    1.930685    0.005925
     11          1           0       -0.087683    1.883811    0.879267
     12          1           0       -0.092352    1.881952   -0.876253
     13          1           0        1.918058   -1.409549    0.854997
     14          1           0        2.663227   -0.022184    0.032462
     15          1           0        1.938606   -1.351547   -0.894431
 ---------------------------------------------------------------------
 Rotational constants (GHZ):           7.8565110           3.5625651           2.5670013
 Standard basis: 6-31G(d,p) (6D, 7F)
 There are   125 symmetry adapted cartesian basis functions of A   symmetry.
 There are   125 symmetry adapted basis functions of A   symmetry.
   125 basis functions,   210 primitive gaussians,   125 cartesian basis functions
    20 alpha electrons       20 beta electrons
       nuclear repulsion energy       173.7224465171 Hartrees.
 NAtoms=   15 NActive=   15 NUniq=   15 SFac= 1.00D+00 NAtFMM=   60 NAOKFM=F Big=F
 Integral buffers will be    131072 words long.
 Raffenetti 2 integral format.
 Two-electron integral symmetry is turned on.
 One-electron integrals computed using PRISM.
 NBasis=   125 RedAO= T EigKep=  3.07D-03  NBF=   125
 NBsUse=   125 1.00D-06 EigRej= -1.00D+00 NBFU=   125
 Initial guess from the checkpoint file:  "cis-CC=C(C)C.chk"
 B after Tr=     0.000000    0.000000    0.000000
         Rot=    0.999534    0.000252    0.000291    0.030529 Ang=   3.50 deg.
 ExpMin= 1.61D-01 ExpMax= 3.05D+03 ExpMxC= 4.57D+02 IAcc=3 IRadAn=         5 AccDes= 0.00D+00
 Harris functional with IExCor=  402 and IRadAn=       5 diagonalized for initial guess.
 HarFok:  IExCor=  402 AccDes= 0.00D+00 IRadAn=         5 IDoV= 1 UseB2=F ITyADJ=14
 ICtDFT=  3500011 ScaDFX=  1.000000  1.000000  1.000000  1.000000
 FoFCou: FMM=F IPFlag=           0 FMFlag=      100000 FMFlg1=           0
         NFxFlg=           0 DoJE=T BraDBF=F KetDBF=T FulRan=T
         wScrn=  0.000000 ICntrl=       500 IOpCl=  0 I1Cent=   200000004 NGrid=           0
         NMat0=    1 NMatS0=      1 NMatT0=    0 NMatD0=    1 NMtDS0=    0 NMtDT0=    0
 Petite list used in FoFCou.
 Requested convergence on RMS density matrix=1.00D-08 within 128 cycles.
 Requested convergence on MAX density matrix=1.00D-06.
 Requested convergence on             energy=1.00D-06.
 No special actions if energy rises.
 Integral accuracy reduced to 1.0D-05 until final iterations.
 Initial convergence to 1.0D-05 achieved.  Increase integral accuracy.
 SCF Done:  E(RB3LYP) =  -196.550015785     A.U. after   11 cycles
            NFock= 11  Conv=0.88D-08     -V/T= 2.0107
 Calling FoFJK, ICntrl=      2127 FMM=F ISym2X=0 I1Cent= 0 IOpClX= 0 NMat=1 NMatS=1 NMatT=0.
 ***** Axes restored to original set *****
 -------------------------------------------------------------------
 Center     Atomic                   Forces (Hartrees/Bohr)
 Number     Number              X              Y              Z
 -------------------------------------------------------------------
      1        6          -0.007644198   -0.001969487   -0.005796921
      2        6          -0.005590563    0.005260554   -0.002466605
      3        6           0.009063423   -0.006590508    0.002565936
      4        6           0.001029694   -0.000446636   -0.000304648
      5        6           0.004904341   -0.001018444    0.001029643
      6        1           0.002182792    0.000056591    0.001119629
      7        1          -0.000112010    0.000448615    0.002180437
      8        1          -0.000026000    0.001122288    0.002268737
      9        1           0.000302935   -0.000872346    0.000459307
     10        1           0.000715823    0.000368545    0.000723161
     11        1          -0.000324773    0.000012606    0.000000740
     12        1          -0.001165871    0.000653193   -0.000204267
     13        1          -0.001309838    0.001856762   -0.001226766
     14        1          -0.000038662   -0.000605313    0.000192325
     15        1          -0.001987093    0.001723580   -0.000540707
 -------------------------------------------------------------------
 Cartesian Forces:  Max     0.009063423 RMS     0.002814430

 GradGradGradGradGradGradGradGradGradGradGradGradGradGradGradGradGradGrad
 Berny optimization.
 Using GEDIIS/GDIIS optimizer.
 FormGI is forming the generalized inverse of G from B-inverse, IUseBI=4.
 Internal  Forces:  Max     0.011824902 RMS     0.002008976
 Search for a local minimum.
 Step number   2 out of a maximum of   70
 All quantities printed in internal units (Hartrees-Bohrs-Radians)
 Mixed Optimization -- RFO/linear search
 Update second derivatives using D2CorX and points    1    2
 DE= -1.14D-02 DEPred=-1.36D-02 R= 8.40D-01
 TightC=F SS=  1.41D+00  RLast= 3.07D-01 DXNew= 5.0454D-01 9.2172D-01
 Trust test= 8.40D-01 RLast= 3.07D-01 DXMaxT set to 5.05D-01
 ITU=  1  0
 Use linear search instead of GDIIS.
     Eigenvalues ---    0.00912   0.00956   0.01015   0.01529   0.01803
     Eigenvalues ---    0.03109   0.07044   0.07125   0.07167   0.07345
     Eigenvalues ---    0.07356   0.07386   0.15808   0.16000   0.16000
     Eigenvalues ---    0.16000   0.16000   0.16000   0.16000   0.16000
     Eigenvalues ---    0.16000   0.16315   0.22925   0.24607   0.25303
     Eigenvalues ---    0.30467   0.30798   0.31910   0.32939   0.33015
     Eigenvalues ---    0.33022   0.33296   0.33358   0.33677   0.33899
     Eigenvalues ---    0.34279   0.35988   0.36038   0.65992
 RFO step:  Lambda=-8.60146572D-04 EMin= 9.11835913D-03
 Quartic linear search produced a step of -0.00016.
 Iteration  1 RMS(Cart)=  0.01652038 RMS(Int)=  0.00020240
 Iteration  2 RMS(Cart)=  0.00023458 RMS(Int)=  0.00005946
 Iteration  3 RMS(Cart)=  0.00000005 RMS(Int)=  0.00005946
 Variable       Old X    -DE/DX   Delta X   Delta X   Delta X     New X
                                 (Linear)    (Quad)   (Total)
    R1        2.86553  -0.00494  -0.00001  -0.01324  -0.01325   2.85228
    R2        2.07124   0.00053   0.00000   0.00107   0.00107   2.07231
    R3        2.08409  -0.00215   0.00001  -0.00823  -0.00823   2.07586
    R4        2.06361   0.00018   0.00000   0.00021   0.00021   2.06382
    R5        2.55292  -0.01182  -0.00001  -0.01782  -0.01783   2.53509
    R6        2.05632   0.00100  -0.00000   0.00323   0.00323   2.05955
    R7        2.86055   0.00038  -0.00001   0.00281   0.00280   2.86335
    R8        2.88294  -0.00243  -0.00001  -0.00505  -0.00507   2.87788
    R9        2.06693  -0.00070   0.00000  -0.00277  -0.00276   2.06417
   R10        2.07478  -0.00014   0.00000  -0.00067  -0.00067   2.07410
   R11        2.07442  -0.00013   0.00000  -0.00082  -0.00081   2.07361
   R12        2.07459  -0.00124   0.00001  -0.00562  -0.00561   2.06898
   R13        2.06542  -0.00029   0.00000  -0.00142  -0.00142   2.06400
   R14        2.07390  -0.00072   0.00001  -0.00324  -0.00324   2.07066
    A1        1.94478   0.00176  -0.00001   0.01005   0.00993   1.95471
    A2        1.93824   0.00101  -0.00001   0.01344   0.01334   1.95158
    A3        1.95022  -0.00106  -0.00000  -0.00906  -0.00909   1.94114
    A4        1.85630  -0.00048   0.00001   0.00157   0.00142   1.85772
    A5        1.90941  -0.00218   0.00001  -0.02623  -0.02626   1.88315
    A6        1.86067   0.00090   0.00000   0.01028   0.01028   1.87095
    A7        2.19405  -0.00306  -0.00001  -0.01150  -0.01152   2.18254
    A8        2.03328   0.00128   0.00001   0.00412   0.00412   2.03740
    A9        2.05585   0.00178   0.00001   0.00739   0.00739   2.06324
   A10        2.11651  -0.00118  -0.00001  -0.00354  -0.00355   2.11296
   A11        2.09069   0.00306  -0.00001   0.01312   0.01311   2.10380
   A12        2.07599  -0.00188   0.00001  -0.00957  -0.00956   2.06643
   A13        1.95737  -0.00027   0.00000  -0.00371  -0.00370   1.95367
   A14        1.94311   0.00021  -0.00001   0.00435   0.00431   1.94742
   A15        1.94032   0.00122  -0.00001   0.00935   0.00931   1.94963
   A16        1.87604   0.00004   0.00000  -0.00043  -0.00042   1.87562
   A17        1.88942  -0.00117   0.00001  -0.01248  -0.01246   1.87696
   A18        1.85307  -0.00007   0.00000   0.00253   0.00247   1.85554
   A19        1.94208   0.00035  -0.00000   0.00509   0.00494   1.94702
   A20        1.95774  -0.00033  -0.00001  -0.00674  -0.00675   1.95099
   A21        1.93231   0.00155  -0.00001   0.01535   0.01521   1.94753
   A22        1.89164  -0.00119   0.00001  -0.01586  -0.01589   1.87575
   A23        1.84594   0.00111   0.00000   0.01845   0.01820   1.86413
   A24        1.88982  -0.00151   0.00001  -0.01594  -0.01590   1.87391
    D1        0.93178   0.00109  -0.00000   0.00940   0.00944   0.94122
    D2       -2.21354   0.00111  -0.00000   0.01033   0.01037  -2.20317
    D3       -1.13427  -0.00011  -0.00000  -0.00789  -0.00795  -1.14221
    D4        2.00359  -0.00009  -0.00000  -0.00696  -0.00702   1.99658
    D5        3.07380  -0.00123   0.00000  -0.02386  -0.02385   3.04996
    D6       -0.07152  -0.00121   0.00000  -0.02293  -0.02292  -0.09444
    D7        0.00374  -0.00010  -0.00000  -0.00366  -0.00367   0.00007
    D8       -3.13923  -0.00004  -0.00000  -0.00003  -0.00002  -3.13925
    D9       -3.13408  -0.00012  -0.00000  -0.00459  -0.00460  -3.13868
   D10        0.00614  -0.00006  -0.00000  -0.00097  -0.00096   0.00518
   D11        3.13629   0.00034  -0.00000   0.00842   0.00841  -3.13849
   D12        1.03344   0.00034  -0.00000   0.00848   0.00849   1.04193
   D13       -1.02883  -0.00050   0.00000  -0.00359  -0.00362  -1.03245
   D14       -0.00395   0.00028  -0.00000   0.00480   0.00482   0.00087
   D15       -2.10679   0.00028  -0.00000   0.00487   0.00490  -2.10189
   D16        2.11412  -0.00056   0.00000  -0.00720  -0.00721   2.10691
   D17       -0.98780  -0.00130   0.00000  -0.01099  -0.01108  -0.99888
   D18       -3.11024   0.00023  -0.00000   0.01061   0.01058  -3.09967
   D19        1.05978   0.00129  -0.00000   0.02485   0.02495   1.08473
   D20        2.15246  -0.00124   0.00000  -0.00745  -0.00753   2.14493
   D21        0.03001   0.00028  -0.00000   0.01415   0.01413   0.04414
   D22       -2.08316   0.00135  -0.00000   0.02839   0.02851  -2.05465
         Item               Value     Threshold  Converged?
 Maximum Force            0.011825     0.000450     NO 
 RMS     Force            0.002009     0.000300     NO 
 Maximum Displacement     0.050957     0.001800     NO 
 RMS     Displacement     0.016526     0.001200     NO 
 Predicted change in Energy=-4.345297D-04
 GradGradGradGradGradGradGradGradGradGradGradGradGradGradGradGradGradGrad

                          Input orientation:                          
 ---------------------------------------------------------------------
 Center     Atomic      Atomic             Coordinates (Angstroms)
 Number     Number       Type             X           Y           Z
 ---------------------------------------------------------------------
      1          6           0        2.064060    0.059413   -0.047734
      2          6           0        0.770126   -0.621260    0.327210
      3          6           0       -0.455722   -0.137083    0.077152
      4          6           0       -0.642993    1.188662   -0.632229
      5          6           0       -1.695534   -0.910988    0.505146
      6          1           0        2.113583    1.086290    0.333898
      7          1           0        2.189521    0.126194   -1.137001
      8          1           0        2.925484   -0.486003    0.343688
      9          1           0        0.850895   -1.580704    0.837847
     10          1           0       -1.698832    1.440088   -0.755252
     11          1           0       -0.187924    1.179892   -1.630973
     12          1           0       -0.168449    2.012601   -0.084494
     13          1           0       -1.709660   -1.917754    0.075110
     14          1           0       -2.614248   -0.408692    0.194316
     15          1           0       -1.740307   -1.030654    1.593416
 ---------------------------------------------------------------------
                    Distance matrix (angstroms):
                    1          2          3          4          5
     1  C    0.000000
     2  C    1.509360   0.000000
     3  C    2.530516   1.341514   0.000000
     4  C    2.990815   2.488624   1.515220   0.000000
     5  C    3.921977   2.488992   1.522906   2.609597   0.000000
     6  H    1.096618   2.172706   2.857251   2.922771   4.304395
     7  H    1.098500   2.171931   2.922463   3.067046   4.343506
     8  H    1.092127   2.159661   3.409595   4.060905   4.643328
     9  H    2.223962   1.089865   2.090442   3.473070   2.653961
    10  H    4.070160   3.393617   2.173864   1.092312   2.667616
    11  H    2.972129   2.827807   2.173437   1.097568   3.347786
    12  H    2.966545   2.826242   2.174809   1.097306   3.350677
    13  H    4.262070   2.809588   2.177879   3.359751   1.094855
    14  H    4.707895   3.393646   2.178700   2.668438   1.092224
    15  H    4.284255   2.841330   2.178919   3.329108   1.095745
                    6          7          8          9         10
     6  H    0.000000
     7  H    1.758151   0.000000
     8  H    1.769572   1.763198   0.000000
     9  H    2.993526   2.933503   2.397182   0.000000
    10  H    3.980694   4.122056   5.128528   4.261954   0.000000
    11  H    3.027609   2.646986   4.045715   3.846440   1.765625
    12  H    2.498154   3.197863   3.999848   3.847286   1.766284
    13  H    4.869131   4.566240   4.858663   2.692919   3.459006
    14  H    4.960528   5.013452   5.542285   3.714157   2.271046
    15  H    4.573872   4.923111   4.860872   2.754591   3.409183
                   11         12         13         14         15
    11  H    0.000000
    12  H    1.756526   0.000000
    13  H    3.849910   4.224748   0.000000
    14  H    3.426707   3.452872   1.763451   0.000000
    15  H    4.206316   3.814121   1.758733   1.762978   0.000000
 Stoichiometry    C5H10
 Framework group  C1[X(C5H10)]
 Deg. of freedom    39
 Full point group                 C1      NOp   1
 Largest Abelian subgroup         C1      NOp   1
 Largest concise Abelian subgroup C1      NOp   1
                         Standard orientation:                         
 ---------------------------------------------------------------------
 Center     Atomic      Atomic             Coordinates (Angstroms)
 Number     Number       Type             X           Y           Z
 ---------------------------------------------------------------------
      1          6           0       -2.055567   -0.181122   -0.001924
      2          6           0       -0.658122   -0.751482   -0.000002
      3          6           0        0.470177   -0.025809    0.000887
      4          6           0        0.425659    1.488756    0.000079
      5          6           0        1.830531   -0.710410   -0.000243
      6          1           0       -2.208676    0.527926   -0.824347
      7          1           0       -2.274465    0.366062    0.925100
      8          1           0       -2.804530   -0.970450   -0.095504
      9          1           0       -0.572006   -1.837934    0.003431
     10          1           0        1.426452    1.926424   -0.002169
     11          1           0       -0.101925    1.877557    0.880502
     12          1           0       -0.107780    1.878608   -0.876014
     13          1           0        1.942199   -1.384760    0.855029
     14          1           0        2.648129    0.012501    0.043190
     15          1           0        1.976532   -1.315526   -0.902005
 ---------------------------------------------------------------------
 Rotational constants (GHZ):           7.9256778           3.5870172           2.5874962
 Standard basis: 6-31G(d,p) (6D, 7F)
 There are   125 symmetry adapted cartesian basis functions of A   symmetry.
 There are   125 symmetry adapted basis functions of A   symmetry.
   125 basis functions,   210 primitive gaussians,   125 cartesian basis functions
    20 alpha electrons       20 beta electrons
       nuclear repulsion energy       174.2189465383 Hartrees.
 NAtoms=   15 NActive=   15 NUniq=   15 SFac= 1.00D+00 NAtFMM=   60 NAOKFM=F Big=F
 Integral buffers will be    131072 words long.
 Raffenetti 2 integral format.
 Two-electron integral symmetry is turned on.
 One-electron integrals computed using PRISM.
 NBasis=   125 RedAO= T EigKep=  2.92D-03  NBF=   125
 NBsUse=   125 1.00D-06 EigRej= -1.00D+00 NBFU=   125
 Initial guess from the checkpoint file:  "cis-CC=C(C)C.chk"
 B after Tr=    -0.000000   -0.000000   -0.000000
         Rot=    0.999995   -0.000368    0.000179   -0.003251 Ang=  -0.38 deg.
 ExpMin= 1.61D-01 ExpMax= 3.05D+03 ExpMxC= 4.57D+02 IAcc=3 IRadAn=         5 AccDes= 0.00D+00
 Harris functional with IExCor=  402 and IRadAn=       5 diagonalized for initial guess.
 HarFok:  IExCor=  402 AccDes= 0.00D+00 IRadAn=         5 IDoV= 1 UseB2=F ITyADJ=14
 ICtDFT=  3500011 ScaDFX=  1.000000  1.000000  1.000000  1.000000
 FoFCou: FMM=F IPFlag=           0 FMFlag=      100000 FMFlg1=           0
         NFxFlg=           0 DoJE=T BraDBF=F KetDBF=T FulRan=T
         wScrn=  0.000000 ICntrl=       500 IOpCl=  0 I1Cent=   200000004 NGrid=           0
         NMat0=    1 NMatS0=      1 NMatT0=    0 NMatD0=    1 NMtDS0=    0 NMtDT0=    0
 Petite list used in FoFCou.
 Requested convergence on RMS density matrix=1.00D-08 within 128 cycles.
 Requested convergence on MAX density matrix=1.00D-06.
 Requested convergence on             energy=1.00D-06.
 No special actions if energy rises.
 Integral accuracy reduced to 1.0D-05 until final iterations.
 Initial convergence to 1.0D-05 achieved.  Increase integral accuracy.
 SCF Done:  E(RB3LYP) =  -196.550499600     A.U. after   10 cycles
            NFock= 10  Conv=0.42D-08     -V/T= 2.0104
 Calling FoFJK, ICntrl=      2127 FMM=F ISym2X=0 I1Cent= 0 IOpClX= 0 NMat=1 NMatS=1 NMatT=0.
 ***** Axes restored to original set *****
 -------------------------------------------------------------------
 Center     Atomic                   Forces (Hartrees/Bohr)
 Number     Number              X              Y              Z
 -------------------------------------------------------------------
      1        6          -0.001703238   -0.001058355   -0.000672871
      2        6          -0.000344506    0.000784726   -0.000365990
      3        6           0.000162084   -0.001432316    0.001028527
      4        6           0.000219420   -0.000042683   -0.000221866
      5        6           0.001728683    0.000763251   -0.000277523
      6        1           0.000287385    0.000376048    0.000455255
      7        1           0.000014130   -0.000013552   -0.000154336
      8        1           0.000684984    0.000210141    0.000503853
      9        1           0.000210257    0.000097351   -0.000216334
     10        1          -0.000386979    0.000180102    0.000038249
     11        1          -0.000017720   -0.000102926    0.000001409
     12        1           0.000035727    0.000089089    0.000215834
     13        1          -0.000080940   -0.000488535   -0.000400618
     14        1          -0.000628025    0.000206088   -0.000282980
     15        1          -0.000181261    0.000431572    0.000349391
 -------------------------------------------------------------------
 Cartesian Forces:  Max     0.001728683 RMS     0.000578552

 GradGradGradGradGradGradGradGradGradGradGradGradGradGradGradGradGradGrad
 Berny optimization.
 Using GEDIIS/GDIIS optimizer.
 FormGI is forming the generalized inverse of G from B-inverse, IUseBI=4.
 Internal  Forces:  Max     0.001318145 RMS     0.000360458
 Search for a local minimum.
 Step number   3 out of a maximum of   70
 All quantities printed in internal units (Hartrees-Bohrs-Radians)
 Mixed Optimization -- En-DIIS/RFO-DIIS
 Update second derivatives using D2CorX and points    1    2    3
 DE= -4.84D-04 DEPred=-4.35D-04 R= 1.11D+00
 TightC=F SS=  1.41D+00  RLast= 8.56D-02 DXNew= 8.4853D-01 2.5691D-01
 Trust test= 1.11D+00 RLast= 8.56D-02 DXMaxT set to 5.05D-01
 ITU=  1  1  0
 Use linear search instead of GDIIS.
     Eigenvalues ---    0.00905   0.00939   0.01015   0.01537   0.01805
     Eigenvalues ---    0.03111   0.06593   0.07180   0.07191   0.07198
     Eigenvalues ---    0.07257   0.07320   0.15609   0.16000   0.16000
     Eigenvalues ---    0.16000   0.16000   0.16000   0.16000   0.16000
     Eigenvalues ---    0.16178   0.16594   0.22866   0.23918   0.25286
     Eigenvalues ---    0.30750   0.30964   0.31977   0.32977   0.33013
     Eigenvalues ---    0.33088   0.33344   0.33466   0.33652   0.34005
     Eigenvalues ---    0.34286   0.35666   0.36185   0.64653
 RFO step:  Lambda=-3.70645184D-05 EMin= 9.05279637D-03
 Quartic linear search produced a step of  0.13633.
 Iteration  1 RMS(Cart)=  0.00790873 RMS(Int)=  0.00005263
 Iteration  2 RMS(Cart)=  0.00005292 RMS(Int)=  0.00000923
 Iteration  3 RMS(Cart)=  0.00000000 RMS(Int)=  0.00000923
 Variable       Old X    -DE/DX   Delta X   Delta X   Delta X     New X
                                 (Linear)    (Quad)   (Total)
    R1        2.85228  -0.00087  -0.00181  -0.00121  -0.00302   2.84926
    R2        2.07231   0.00052   0.00015   0.00156   0.00170   2.07401
    R3        2.07586   0.00015  -0.00112   0.00112  -0.00000   2.07586
    R4        2.06382   0.00062   0.00003   0.00195   0.00198   2.06580
    R5        2.53509  -0.00100  -0.00243   0.00030  -0.00213   2.53297
    R6        2.05955  -0.00017   0.00044  -0.00077  -0.00033   2.05922
    R7        2.86335   0.00011   0.00038   0.00046   0.00084   2.86419
    R8        2.87788  -0.00132  -0.00069  -0.00338  -0.00407   2.87381
    R9        2.06417   0.00041  -0.00038   0.00154   0.00116   2.06533
   R10        2.07410  -0.00001  -0.00009  -0.00002  -0.00011   2.07400
   R11        2.07361   0.00019  -0.00011   0.00063   0.00052   2.07413
   R12        2.06898   0.00061  -0.00077   0.00244   0.00168   2.07066
   R13        2.06400   0.00070  -0.00019   0.00240   0.00221   2.06621
   R14        2.07066   0.00031  -0.00044   0.00119   0.00075   2.07141
    A1        1.95471  -0.00001   0.00135  -0.00147  -0.00013   1.95458
    A2        1.95158   0.00001   0.00182   0.00019   0.00199   1.95357
    A3        1.94114   0.00044  -0.00124   0.00384   0.00260   1.94373
    A4        1.85772   0.00008   0.00019   0.00070   0.00087   1.85858
    A5        1.88315  -0.00055  -0.00358  -0.00375  -0.00734   1.87581
    A6        1.87095  -0.00001   0.00140   0.00028   0.00168   1.87263
    A7        2.18254  -0.00032  -0.00157   0.00014  -0.00143   2.18111
    A8        2.03740  -0.00007   0.00056  -0.00156  -0.00100   2.03641
    A9        2.06324   0.00039   0.00101   0.00141   0.00242   2.06566
   A10        2.11296  -0.00031  -0.00048  -0.00076  -0.00124   2.11172
   A11        2.10380   0.00083   0.00179   0.00258   0.00437   2.10817
   A12        2.06643  -0.00052  -0.00130  -0.00182  -0.00312   2.06330
   A13        1.95367   0.00009  -0.00050   0.00089   0.00038   1.95405
   A14        1.94742  -0.00008   0.00059  -0.00050   0.00009   1.94751
   A15        1.94963  -0.00016   0.00127  -0.00179  -0.00053   1.94910
   A16        1.87562   0.00005  -0.00006   0.00056   0.00051   1.87613
   A17        1.87696  -0.00003  -0.00170   0.00018  -0.00151   1.87545
   A18        1.85554   0.00015   0.00034   0.00075   0.00108   1.85662
   A19        1.94702   0.00004   0.00067   0.00039   0.00104   1.94805
   A20        1.95099   0.00002  -0.00092   0.00028  -0.00064   1.95035
   A21        1.94753  -0.00010   0.00207  -0.00137   0.00068   1.94821
   A22        1.87575  -0.00013  -0.00217  -0.00041  -0.00258   1.87317
   A23        1.86413   0.00029   0.00248   0.00177   0.00421   1.86835
   A24        1.87391  -0.00011  -0.00217  -0.00059  -0.00276   1.87116
    D1        0.94122   0.00014   0.00129  -0.00242  -0.00113   0.94010
    D2       -2.20317   0.00010   0.00141  -0.00510  -0.00368  -2.20685
    D3       -1.14221   0.00004  -0.00108  -0.00243  -0.00352  -1.14574
    D4        1.99658  -0.00000  -0.00096  -0.00511  -0.00607   1.99050
    D5        3.04996  -0.00026  -0.00325  -0.00555  -0.00880   3.04116
    D6       -0.09444  -0.00030  -0.00312  -0.00823  -0.01135  -0.10579
    D7        0.00007  -0.00000  -0.00050   0.00018  -0.00032  -0.00025
    D8       -3.13925  -0.00002  -0.00000  -0.00160  -0.00161  -3.14086
    D9       -3.13868   0.00004  -0.00063   0.00290   0.00228  -3.13641
   D10        0.00518   0.00002  -0.00013   0.00112   0.00099   0.00617
   D11       -3.13849   0.00007   0.00115   0.00163   0.00278  -3.13572
   D12        1.04193  -0.00000   0.00116   0.00064   0.00180   1.04373
   D13       -1.03245  -0.00003  -0.00049   0.00123   0.00073  -1.03173
   D14        0.00087   0.00009   0.00066   0.00339   0.00404   0.00492
   D15       -2.10189   0.00002   0.00067   0.00239   0.00306  -2.09882
   D16        2.10691  -0.00001  -0.00098   0.00298   0.00200   2.10891
   D17       -0.99888  -0.00001  -0.00151   0.01517   0.01365  -0.98523
   D18       -3.09967   0.00012   0.00144   0.01524   0.01668  -3.08299
   D19        1.08473   0.00032   0.00340   0.01676   0.02018   1.10491
   D20        2.14493  -0.00002  -0.00103   0.01343   0.01239   2.15732
   D21        0.04414   0.00011   0.00193   0.01350   0.01542   0.05956
   D22       -2.05465   0.00030   0.00389   0.01502   0.01892  -2.03573
         Item               Value     Threshold  Converged?
 Maximum Force            0.001318     0.000450     NO 
 RMS     Force            0.000360     0.000300     NO 
 Maximum Displacement     0.029564     0.001800     NO 
 RMS     Displacement     0.007912     0.001200     NO 
 Predicted change in Energy=-2.604008D-05
 GradGradGradGradGradGradGradGradGradGradGradGradGradGradGradGradGradGrad

                          Input orientation:                          
 ---------------------------------------------------------------------
 Center     Atomic      Atomic             Coordinates (Angstroms)
 Number     Number       Type             X           Y           Z
 ---------------------------------------------------------------------
      1          6           0        2.061681    0.058772   -0.050854
      2          6           0        0.771244   -0.623751    0.326351
      3          6           0       -0.454260   -0.140198    0.079457
      4          6           0       -0.641647    1.187040   -0.628048
      5          6           0       -1.695035   -0.910192    0.504048
      6          1           0        2.109936    1.086513    0.331204
      7          1           0        2.187737    0.124816   -1.140096
      8          1           0        2.927236   -0.479385    0.344414
      9          1           0        0.856004   -1.584571    0.833370
     10          1           0       -1.697934    1.441132   -0.747155
     11          1           0       -0.189486    1.178860   -1.628055
     12          1           0       -0.164957    2.009636   -0.079605
     13          1           0       -1.706245   -1.921643    0.082746
     14          1           0       -2.612208   -0.411762    0.178671
     15          1           0       -1.752066   -1.015266    1.593652
 ---------------------------------------------------------------------
                    Distance matrix (angstroms):
                    1          2          3          4          5
     1  C    0.000000
     2  C    1.507763   0.000000
     3  C    2.527159   1.340389   0.000000
     4  C    2.985654   2.487187   1.515664   0.000000
     5  C    3.919149   2.489208   1.520753   2.605696   0.000000
     6  H    1.097520   2.171894   2.853647   2.915730   4.300525
     7  H    1.098499   2.171928   2.921933   3.065278   4.341702
     8  H    1.093176   2.160896   3.408778   4.057041   4.645048
     9  H    2.221730   1.089691   2.090787   3.472827   2.659142
    10  H    4.065767   3.393081   2.174998   1.092928   2.663502
    11  H    2.968151   2.827032   2.173848   1.097511   3.343154
    12  H    2.960509   2.824181   2.175036   1.097582   3.347714
    13  H    4.258775   2.807458   2.177389   3.361920   1.095744
    14  H    4.703118   3.393301   2.177229   2.662719   1.093393
    15  H    4.289828   2.850689   2.177804   3.319508   1.096143
                    6          7          8          9         10
     6  H    0.000000
     7  H    1.759443   0.000000
     8  H    1.766406   1.765130   0.000000
     9  H    2.993193   2.930884   2.398024   0.000000
    10  H    3.973473   4.121351   5.125632   4.263277   0.000000
    11  H    3.022345   2.645809   4.044054   3.845544   1.766405
    12  H    2.489188   3.195678   3.992076   3.846323   1.766023
    13  H    4.865591   4.565790   4.859808   2.691129   3.463677
    14  H    4.956484   5.006649   5.542335   3.719220   2.264126
    15  H    4.574528   4.929018   4.872744   2.775638   3.393552
                   11         12         13         14         15
    11  H    0.000000
    12  H    1.757409   0.000000
    13  H    3.852339   4.225740   0.000000
    14  H    3.415248   3.452377   1.763437   0.000000
    15  H    4.199433   3.803779   1.762515   1.762451   0.000000
 Stoichiometry    C5H10
 Framework group  C1[X(C5H10)]
 Deg. of freedom    39
 Full point group                 C1      NOp   1
 Largest Abelian subgroup         C1      NOp   1
 Largest concise Abelian subgroup C1      NOp   1
                         Standard orientation:                         
 ---------------------------------------------------------------------
 Center     Atomic      Atomic             Coordinates (Angstroms)
 Number     Number       Type             X           Y           Z
 ---------------------------------------------------------------------
      1          6           0       -2.053210   -0.179488   -0.000897
      2          6           0       -0.658657   -0.752698   -0.000344
      3          6           0        0.469453   -0.028813    0.000321
      4          6           0        0.424621    1.486188    0.000254
      5          6           0        1.830149   -0.707928   -0.000121
      6          1           0       -2.204759    0.531969   -0.822731
      7          1           0       -2.273374    0.364981    0.927424
      8          1           0       -2.806634   -0.964896   -0.103473
      9          1           0       -0.576321   -1.839262    0.004708
     10          1           0        1.425712    1.924685   -0.005108
     11          1           0       -0.100970    1.874584    0.881975
     12          1           0       -0.110202    1.875886   -0.875409
     13          1           0        1.939827   -1.392606    0.848313
     14          1           0        2.645355    0.018249    0.060005
     15          1           0        1.987234   -1.297161   -0.910977
 ---------------------------------------------------------------------
 Rotational constants (GHZ):           7.9459572           3.5900962           2.5915617
 Standard basis: 6-31G(d,p) (6D, 7F)
 There are   125 symmetry adapted cartesian basis functions of A   symmetry.
 There are   125 symmetry adapted basis functions of A   symmetry.
   125 basis functions,   210 primitive gaussians,   125 cartesian basis functions
    20 alpha electrons       20 beta electrons
       nuclear repulsion energy       174.3038560060 Hartrees.
 NAtoms=   15 NActive=   15 NUniq=   15 SFac= 1.00D+00 NAtFMM=   60 NAOKFM=F Big=F
 Integral buffers will be    131072 words long.
 Raffenetti 2 integral format.
 Two-electron integral symmetry is turned on.
 One-electron integrals computed using PRISM.
 NBasis=   125 RedAO= T EigKep=  2.90D-03  NBF=   125
 NBsUse=   125 1.00D-06 EigRej= -1.00D+00 NBFU=   125
 Initial guess from the checkpoint file:  "cis-CC=C(C)C.chk"
 B after Tr=     0.000000   -0.000000    0.000000
         Rot=    1.000000   -0.000646    0.000122   -0.000081 Ang=  -0.08 deg.
 ExpMin= 1.61D-01 ExpMax= 3.05D+03 ExpMxC= 4.57D+02 IAcc=3 IRadAn=         5 AccDes= 0.00D+00
 Harris functional with IExCor=  402 and IRadAn=       5 diagonalized for initial guess.
 HarFok:  IExCor=  402 AccDes= 0.00D+00 IRadAn=         5 IDoV= 1 UseB2=F ITyADJ=14
 ICtDFT=  3500011 ScaDFX=  1.000000  1.000000  1.000000  1.000000
 FoFCou: FMM=F IPFlag=           0 FMFlag=      100000 FMFlg1=           0
         NFxFlg=           0 DoJE=T BraDBF=F KetDBF=T FulRan=T
         wScrn=  0.000000 ICntrl=       500 IOpCl=  0 I1Cent=   200000004 NGrid=           0
         NMat0=    1 NMatS0=      1 NMatT0=    0 NMatD0=    1 NMtDS0=    0 NMtDT0=    0
 Petite list used in FoFCou.
 Requested convergence on RMS density matrix=1.00D-08 within 128 cycles.
 Requested convergence on MAX density matrix=1.00D-06.
 Requested convergence on             energy=1.00D-06.
 No special actions if energy rises.
 Integral accuracy reduced to 1.0D-05 until final iterations.
 Initial convergence to 1.0D-05 achieved.  Increase integral accuracy.
 SCF Done:  E(RB3LYP) =  -196.550535218     A.U. after    9 cycles
            NFock=  9  Conv=0.22D-08     -V/T= 2.0104
 Calling FoFJK, ICntrl=      2127 FMM=F ISym2X=0 I1Cent= 0 IOpClX= 0 NMat=1 NMatS=1 NMatT=0.
 ***** Axes restored to original set *****
 -------------------------------------------------------------------
 Center     Atomic                   Forces (Hartrees/Bohr)
 Number     Number              X              Y              Z
 -------------------------------------------------------------------
      1        6          -0.000058380   -0.000064712    0.000192460
      2        6           0.000287604   -0.000122652   -0.000149704
      3        6          -0.000582018   -0.000181584    0.000131886
      4        6           0.000004445    0.000324854    0.000110010
      5        6           0.000218182    0.000168725   -0.000301734
      6        1          -0.000031964    0.000084529   -0.000031114
      7        1           0.000047580   -0.000056395   -0.000088782
      8        1           0.000040440    0.000025295   -0.000013132
      9        1          -0.000011972   -0.000016910   -0.000114395
     10        1          -0.000002899   -0.000020843    0.000023036
     11        1          -0.000003446   -0.000044491    0.000004475
     12        1           0.000077861   -0.000021837    0.000010198
     13        1           0.000102179   -0.000098947    0.000254070
     14        1           0.000003966   -0.000076653   -0.000138119
     15        1          -0.000091577    0.000101621    0.000110845
 -------------------------------------------------------------------
 Cartesian Forces:  Max     0.000582018 RMS     0.000151106

 GradGradGradGradGradGradGradGradGradGradGradGradGradGradGradGradGradGrad
 Berny optimization.
 Using GEDIIS/GDIIS optimizer.
 FormGI is forming the generalized inverse of G from B-inverse, IUseBI=4.
 Internal  Forces:  Max     0.000266435 RMS     0.000091994
 Search for a local minimum.
 Step number   4 out of a maximum of   70
 All quantities printed in internal units (Hartrees-Bohrs-Radians)
 Mixed Optimization -- En-DIIS/RFO-DIIS
 Swapping is turned off.
 Update second derivatives using D2CorX and points    1    2    3    4
 DE= -3.56D-05 DEPred=-2.60D-05 R= 1.37D+00
 TightC=F SS=  1.41D+00  RLast= 4.62D-02 DXNew= 8.4853D-01 1.3861D-01
 Trust test= 1.37D+00 RLast= 4.62D-02 DXMaxT set to 5.05D-01
 ITU=  1  1  1  0
     Eigenvalues ---    0.00410   0.00918   0.01014   0.01547   0.01812
     Eigenvalues ---    0.03108   0.07161   0.07185   0.07198   0.07222
     Eigenvalues ---    0.07301   0.08055   0.15861   0.15997   0.16000
     Eigenvalues ---    0.16000   0.16000   0.16000   0.16000   0.16066
     Eigenvalues ---    0.16438   0.16520   0.23058   0.24861   0.25873
     Eigenvalues ---    0.30801   0.30990   0.31956   0.32944   0.33017
     Eigenvalues ---    0.33084   0.33346   0.33519   0.33779   0.33824
     Eigenvalues ---    0.34539   0.36064   0.37173   0.70193
 En-DIIS/RFO-DIIS/Sim-DIIS IScMMF=       -3 using points:     4    3
 RFO step:  Lambda=-5.38143942D-05.
 DidBck=F Rises=F RFO-DIIS coefs:    3.00000   -2.00000
 Iteration  1 RMS(Cart)=  0.01857238 RMS(Int)=  0.00030808
 Iteration  2 RMS(Cart)=  0.00031847 RMS(Int)=  0.00000603
 Iteration  3 RMS(Cart)=  0.00000007 RMS(Int)=  0.00000603
 Variable       Old X    -DE/DX   Delta X   Delta X   Delta X     New X
                                 (Linear)    (Quad)   (Total)
    R1        2.84926  -0.00002  -0.00604   0.00292  -0.00312   2.84614
    R2        2.07401   0.00007   0.00341  -0.00174   0.00166   2.07567
    R3        2.07586   0.00009  -0.00000  -0.00015  -0.00015   2.07571
    R4        2.06580   0.00001   0.00396  -0.00237   0.00160   2.06740
    R5        2.53297   0.00027  -0.00425   0.00233  -0.00192   2.53104
    R6        2.05922  -0.00004  -0.00066   0.00046  -0.00019   2.05903
    R7        2.86419   0.00013   0.00168  -0.00012   0.00155   2.86574
    R8        2.87381  -0.00026  -0.00814   0.00366  -0.00448   2.86933
    R9        2.06533  -0.00000   0.00233  -0.00166   0.00066   2.06600
   R10        2.07400  -0.00001  -0.00021   0.00004  -0.00017   2.07383
   R11        2.07413   0.00002   0.00104  -0.00062   0.00042   2.07455
   R12        2.07066  -0.00001   0.00336  -0.00256   0.00080   2.07145
   R13        2.06621   0.00000   0.00442  -0.00282   0.00160   2.06782
   R14        2.07141   0.00011   0.00151  -0.00069   0.00082   2.07223
    A1        1.95458  -0.00001  -0.00026   0.00092   0.00066   1.95524
    A2        1.95357  -0.00002   0.00398  -0.00184   0.00212   1.95569
    A3        1.94373   0.00007   0.00519  -0.00290   0.00228   1.94601
    A4        1.85858   0.00000   0.00174  -0.00119   0.00054   1.85912
    A5        1.87581   0.00000  -0.01468   0.00752  -0.00716   1.86865
    A6        1.87263  -0.00005   0.00335  -0.00219   0.00114   1.87377
    A7        2.18111   0.00000  -0.00286   0.00128  -0.00158   2.17953
    A8        2.03641   0.00001  -0.00199   0.00142  -0.00057   2.03583
    A9        2.06566  -0.00001   0.00483  -0.00269   0.00214   2.06780
   A10        2.11172  -0.00017  -0.00249   0.00035  -0.00214   2.10958
   A11        2.10817   0.00002   0.00874  -0.00435   0.00439   2.11256
   A12        2.06330   0.00015  -0.00625   0.00399  -0.00225   2.06105
   A13        1.95405  -0.00001   0.00077  -0.00068   0.00009   1.95414
   A14        1.94751  -0.00005   0.00018  -0.00039  -0.00021   1.94729
   A15        1.94910  -0.00005  -0.00106   0.00092  -0.00014   1.94896
   A16        1.87613   0.00003   0.00102  -0.00038   0.00063   1.87676
   A17        1.87545   0.00006  -0.00303   0.00174  -0.00129   1.87417
   A18        1.85662   0.00003   0.00215  -0.00120   0.00095   1.85757
   A19        1.94805   0.00006   0.00207  -0.00033   0.00174   1.94979
   A20        1.95035   0.00000  -0.00129   0.00081  -0.00047   1.94987
   A21        1.94821  -0.00001   0.00136  -0.00011   0.00124   1.94945
   A22        1.87317   0.00002  -0.00516   0.00279  -0.00237   1.87080
   A23        1.86835  -0.00008   0.00843  -0.00540   0.00301   1.87136
   A24        1.87116  -0.00000  -0.00552   0.00219  -0.00333   1.86782
    D1        0.94010  -0.00006  -0.00225  -0.00596  -0.00821   0.93188
    D2       -2.20685  -0.00007  -0.00736  -0.00295  -0.01031  -2.21716
    D3       -1.14574  -0.00005  -0.00704  -0.00380  -0.01083  -1.15657
    D4        1.99050  -0.00005  -0.01215  -0.00079  -0.01293   1.97758
    D5        3.04116  -0.00002  -0.01760   0.00228  -0.01534   3.02582
    D6       -0.10579  -0.00002  -0.02271   0.00529  -0.01743  -0.12322
    D7       -0.00025   0.00002  -0.00064   0.00052  -0.00012  -0.00037
    D8       -3.14086   0.00004  -0.00322   0.00447   0.00125  -3.13961
    D9       -3.13641   0.00002   0.00456  -0.00254   0.00202  -3.13439
   D10        0.00617   0.00004   0.00198   0.00141   0.00339   0.00956
   D11       -3.13572   0.00003   0.00556   0.00230   0.00785  -3.12786
   D12        1.04373   0.00003   0.00360   0.00353   0.00713   1.05086
   D13       -1.03173   0.00006   0.00146   0.00471   0.00617  -1.02556
   D14        0.00492   0.00001   0.00809  -0.00156   0.00653   0.01145
   D15       -2.09882   0.00001   0.00613  -0.00032   0.00581  -2.09302
   D16        2.10891   0.00004   0.00399   0.00085   0.00484   2.11375
   D17       -0.98523   0.00023   0.02730   0.01299   0.04028  -0.94495
   D18       -3.08299   0.00015   0.03335   0.00908   0.04244  -3.04055
   D19        1.10491   0.00016   0.04035   0.00580   0.04616   1.15107
   D20        2.15732   0.00025   0.02478   0.01683   0.04161   2.19893
   D21        0.05956   0.00017   0.03084   0.01293   0.04377   0.10333
   D22       -2.03573   0.00018   0.03784   0.00965   0.04750  -1.98823
         Item               Value     Threshold  Converged?
 Maximum Force            0.000266     0.000450     YES
 RMS     Force            0.000092     0.000300     YES
 Maximum Displacement     0.068436     0.001800     NO 
 RMS     Displacement     0.018579     0.001200     NO 
 Predicted change in Energy=-2.725213D-05
[...]
     4   6     0.00  -0.00  -0.09    -0.00   0.00  -0.03     0.00   0.00   0.00
     5   6    -0.00   0.00  -0.03    -0.00   0.00  -0.00    -0.08   0.03   0.00
     6   1    -0.00   0.00   0.01     0.00  -0.00  -0.02     0.19   0.01   0.00
     7   1    -0.07   0.10  -0.16     0.26  -0.35   0.56     0.01  -0.02   0.03
     8   1     0.07  -0.10  -0.16    -0.26   0.35   0.56     0.01  -0.02  -0.03
     9   1     0.00   0.00  -0.00    -0.00  -0.00   0.00    -0.37  -0.04  -0.00
    10   1     0.23  -0.34   0.53     0.07  -0.10   0.16     0.01  -0.01   0.02
    11   1    -0.23   0.34   0.53    -0.07   0.10   0.16     0.01  -0.01  -0.02
    12   1     0.00   0.00  -0.02    -0.00  -0.00  -0.01    -0.01  -0.03  -0.00
    13   1     0.00  -0.00  -0.00     0.00  -0.00  -0.00     0.88  -0.07   0.00
    14   1    -0.07   0.13   0.18    -0.01   0.02   0.03     0.05  -0.13  -0.21
    15   1     0.07  -0.13   0.18     0.01  -0.02   0.03     0.05  -0.13   0.21
                     37                     38                     39
                     ?N                     ?N                     ?N
 Frequencies --   3123.1112              3136.8586              3145.1478
 Red. masses --      1.0936                 1.0931                 1.0943
 Frc consts  --      6.2847                 6.3372                 6.3776
 IR Inten    --      4.4046                32.2613                49.7470
  Atom  AN      X      Y      Z        X      Y      Z        X      Y      Z
     1   6    -0.07   0.01   0.00    -0.04   0.01  -0.00    -0.05   0.01  -0.00
     2   6     0.05   0.00  -0.00    -0.06  -0.00   0.00    -0.03  -0.00   0.00
     3   6    -0.00   0.00  -0.00    -0.00  -0.00   0.00     0.00  -0.00  -0.00
     4   6     0.00   0.02  -0.00     0.01   0.05   0.00    -0.02  -0.07   0.00
     5   6     0.03  -0.01  -0.00    -0.01   0.00  -0.00    -0.00   0.00   0.00
     6   1     0.70   0.05   0.00     0.43   0.03  -0.00     0.51   0.04  -0.00
     7   1     0.04  -0.07   0.13     0.04  -0.06   0.10     0.03  -0.06   0.10
     8   1     0.04  -0.07  -0.13     0.04  -0.06  -0.10     0.03  -0.06  -0.10
     9   1    -0.58  -0.06   0.00     0.70   0.08  -0.00     0.33   0.04   0.00
    10   1     0.02  -0.03   0.05     0.04  -0.05   0.10    -0.06   0.07  -0.14
    11   1     0.02  -0.03  -0.05     0.04  -0.05  -0.10    -0.06   0.07   0.14
    12   1    -0.08  -0.18  -0.00    -0.23  -0.51  -0.00     0.32   0.72   0.00
    13   1    -0.37   0.03  -0.00     0.14  -0.01   0.00     0.05  -0.00   0.00
    14   1    -0.02   0.05   0.08     0.01  -0.02  -0.03     0.00  -0.00  -0.01
    15   1    -0.02   0.05  -0.08     0.01  -0.02   0.03     0.00  -0.00   0.01

 -------------------
 - Thermochemistry -
 -------------------
 Temperature  3000.000 Kelvin.  Pressure   0.98700 Atm.
 Atom     1 has atomic number  6 and mass  12.00000
 Atom     2 has atomic number  6 and mass  12.00000
 Atom     3 has atomic number  6 and mass  12.00000
 Atom     4 has atomic number  6 and mass  12.00000
 Atom     5 has atomic number  6 and mass  12.00000
 Atom     6 has atomic number  1 and mass   1.00783
 Atom     7 has atomic number  1 and mass   1.00783
 Atom     8 has atomic number  1 and mass   1.00783
 Atom     9 has atomic number  1 and mass   1.00783
 Atom    10 has atomic number  1 and mass   1.00783
 Atom    11 has atomic number  1 and mass   1.00783
 Atom    12 has atomic number  1 and mass   1.00783
 Atom    13 has atomic number  1 and mass   1.00783
 Atom    14 has atomic number  1 and mass   1.00783
 Atom    15 has atomic number  1 and mass   1.00783
 Molecular mass:    70.07825 amu.
 Principal axes and moments of inertia in atomic units:
                           1         2         3
     Eigenvalues --   225.12516 515.84572 707.60507
           X           -0.09914   0.99507   0.00000
           Y            0.99507   0.09914   0.00000
           Z           -0.00000   0.00000   1.00000
 This molecule is an asymmetric top.
 Rotational symmetry number  1.
 Rotational temperatures (Kelvin)      0.38474     0.16791     0.12240
 Rotational constants (GHZ):           8.01661     3.49861     2.55049
 Zero-point vibrational energy     357776.3 (Joules/Mol)
                                   85.51060 (Kcal/Mol)
 Warning -- explicit consideration of  39 degrees of freedom as
           vibrations may cause significant error
 Identified internal rotation modes:
   46   2   3
 Vibrational temperatures:    182.07   216.79   267.11   381.60   428.19
          (Kelvin)            552.92   651.95   758.29  1113.22  1198.28
                             1386.65  1401.24  1470.65  1533.76  1544.29
                             1595.90  1635.70  1785.61  1985.42  2050.00
                             2054.51  2068.28  2137.26  2151.99  2153.50
                             2164.93  2174.56  2175.52  2528.57  4341.76
                             4352.58  4356.66  4408.94  4416.16  4417.25
                             4487.29  4493.46  4513.24  4525.17
 
 Zero-point correction=                           0.136270 (Hartree/Particle)
 Thermal correction to Energy=                    0.422220
 Thermal correction to Enthalpy=                  0.431720
 Thermal correction to Gibbs Free Energy=        -0.569898
 Sum of electronic and zero-point Energies=           -196.421503
 Sum of electronic and thermal Energies=              -196.135554
 Sum of electronic and thermal Enthalpies=            -196.126053
 Sum of electronic and thermal Free Energies=         -197.127671
 
                     E (Thermal)             CV                S
                      KCal/Mol        Cal/Mol-Kelvin    Cal/Mol-Kelvin
 Total                  264.947             78.867            209.508
 Corrected for 
 internal rot.          258.248             75.950            205.840
 Electronic               0.000              0.000              0.000
 Translational            8.942              2.981             50.154
 Rotational               8.942              2.981             32.793
 Vibrational            247.062             72.905            126.562
 Vibration     1          5.963              1.987              7.556
 Vibration     2          5.964              1.986              7.209
 Vibration     3          5.966              1.986              6.794
 Vibration     4          5.970              1.985              6.086
 Vibration     5          5.972              1.984              5.858
 Vibration     6          5.978              1.982              5.351
 Vibration     7          5.985              1.979              5.024
 Vibration     8          5.993              1.977              4.725
 Vibration     9          6.030              1.965              3.969
 Vibration    10          6.041              1.961              3.824
 Vibration    11          6.067              1.952              3.538
 Vibration    12          6.070              1.951              3.518
 Vibration    13          6.081              1.948              3.424
 Vibration    14          6.091              1.944              3.342
 Vibration    15          6.093              1.944              3.329
 Vibration    16          6.102              1.941              3.265
 Vibration    17          6.109              1.939              3.217
 Vibration    18          6.137              1.930              3.047
 Vibration    19          6.178              1.916              2.843
 Vibration    20          6.192              1.912              2.782
 Vibration    21          6.193              1.911              2.778
 Vibration    22          6.196              1.910              2.765
 Vibration    23          6.212              1.905              2.703
 Vibration    24          6.215              1.904              2.689
 Vibration    25          6.215              1.904              2.688
 Vibration    26          6.218              1.903              2.678
 Vibration    27          6.220              1.902              2.670
 Vibration    28          6.221              1.902              2.669
 Vibration    29          6.310              1.874              2.385
 Vibration    30          6.968              1.674              1.417
 Vibration    31          6.972              1.672              1.413
 Vibration    32          6.974              1.672              1.412
 Vibration    33          6.998              1.665              1.392
 Vibration    34          7.001              1.664              1.389
 Vibration    35          7.002              1.664              1.389
 Vibration    36          7.034              1.655              1.363
 Vibration    37          7.037              1.654              1.360
 Vibration    38          7.046              1.651              1.353
 Vibration    39          7.051              1.650              1.349
                       Q            Log10(Q)             Ln(Q)
 Total Bot       0.112675D+27         26.051826         59.986547
 Corrected for 
 Internal rot.   0.547257D+26         25.738191         59.264376
 Total V=0       0.191049D+33         32.281145         74.330082
 Corrected for 
 Internal rot.   0.927918D+32         31.967510         73.607911
 Vib (Bot)       0.458518D+10          9.661356         22.246094
 Vib (Bot)    1  0.164747D+02          1.216817          2.801826
 Vib (Bot)    2  0.138355D+02          1.140995          2.627238
 Vib (Bot)    3  0.112277D+02          1.050290          2.418382
 Vib (Bot)    4  0.785643D+01          0.895225          2.061333
 Vib (Bot)    5  0.700035D+01          0.845120          1.945961
 Vib (Bot)    6  0.541803D+01          0.733841          1.689732
 Vib (Bot)    7  0.459251D+01          0.662051          1.524428
 Vib (Bot)    8  0.394577D+01          0.596131          1.372643
 Vib (Bot)    9  0.267948D+01          0.428050          0.985622
 Vib (Bot)   10  0.248703D+01          0.395680          0.911088
 Vib (Bot)   11  0.214436D+01          0.331297          0.762839
 Vib (Bot)   12  0.212162D+01          0.326668          0.752182
 Vib (Bot)   13  0.201963D+01          0.305273          0.702917
 Vib (Bot)   14  0.193484D+01          0.286645          0.660025
 Vib (Bot)   15  0.192136D+01          0.283608          0.653032
 Vib (Bot)   16  0.185784D+01          0.269008          0.619413
 Vib (Bot)   17  0.181155D+01          0.258051          0.594184
 Vib (Bot)   18  0.165556D+01          0.218944          0.504137
 Vib (Bot)   19  0.148379D+01          0.171373          0.394600
 Vib (Bot)   20  0.143532D+01          0.156950          0.361390
 Vib (Bot)   21  0.143206D+01          0.155960          0.359111
 Vib (Bot)   22  0.142215D+01          0.152946          0.352170
 Vib (Bot)   23  0.137441D+01          0.138117          0.318027
 Vib (Bot)   24  0.136461D+01          0.135010          0.310871
 Vib (Bot)   25  0.136362D+01          0.134693          0.310141
 Vib (Bot)   26  0.135611D+01          0.132295          0.304619
 Vib (Bot)   27  0.134985D+01          0.130284          0.299990
 Vib (Bot)   28  0.134922D+01          0.130083          0.299526
 Vib (Bot)   29  0.115204D+01          0.061466          0.141531
 Vib (Bot)   30  0.634153D+00         -0.197806         -0.455465
 Vib (Bot)   31  0.632310D+00         -0.199070         -0.458375
 Vib (Bot)   32  0.631618D+00         -0.199545         -0.459470
 Vib (Bot)   33  0.622851D+00         -0.205616         -0.473449
 Vib (Bot)   34  0.621654D+00         -0.206451         -0.475372
 Vib (Bot)   35  0.621475D+00         -0.206576         -0.475659
 Vib (Bot)   36  0.610072D+00         -0.214619         -0.494178
 Vib (Bot)   37  0.609083D+00         -0.215323         -0.495801
 Vib (Bot)   38  0.605932D+00         -0.217576         -0.500988
 Vib (Bot)   39  0.604044D+00         -0.218931         -0.504108
 Vib (V=0)       0.777453D+16         15.890674         36.589630
 Vib (V=0)    1  0.169823D+02          1.229996          2.832170
 Vib (V=0)    2  0.143445D+02          1.156687          2.663369
 Vib (V=0)    3  0.117388D+02          1.069624          2.462900
 Vib (V=0)    4  0.837233D+01          0.922846          2.124932
 Vib (V=0)    5  0.751819D+01          0.876113          2.017325
 Vib (V=0)    6  0.594105D+01          0.773863          1.781886
 Vib (V=0)    7  0.511965D+01          0.709240          1.633087
 Vib (V=0)    8  0.447732D+01          0.651018          1.499025
 Vib (V=0)    9  0.322573D+01          0.508628          1.171159
 Vib (V=0)   10  0.303679D+01          0.482415          1.110801
 Vib (V=0)   11  0.270188D+01          0.431665          0.993947
 Vib (V=0)   12  0.267974D+01          0.428093          0.985722
 Vib (V=0)   13  0.258061D+01          0.411722          0.948025
 Vib (V=0)   14  0.249840D+01          0.397662          0.915651
 Vib (V=0)   15  0.248535D+01          0.395388          0.910414
 Vib (V=0)   16  0.242394D+01          0.384523          0.885396
 Vib (V=0)   17  0.237929D+01          0.376447          0.866801
 Vib (V=0)   18  0.222941D+01          0.348190          0.801738
 Vib (V=0)   19  0.206577D+01          0.315082          0.725503
 Vib (V=0)   20  0.201992D+01          0.305334          0.703058
 Vib (V=0)   21  0.201683D+01          0.304670          0.701529
 Vib (V=0)   22  0.200749D+01          0.302652          0.696883
 Vib (V=0)   23  0.196254D+01          0.292818          0.674238
 Vib (V=0)   24  0.195333D+01          0.290776          0.669536
 Vib (V=0)   25  0.195240D+01          0.290568          0.669057
 Vib (V=0)   26  0.194535D+01          0.288997          0.665441
 Vib (V=0)   27  0.193947D+01          0.287684          0.662416
 Vib (V=0)   28  0.193889D+01          0.287552          0.662114
 Vib (V=0)   29  0.175586D+01          0.244490          0.562959
 Vib (V=0)   30  0.130756D+01          0.116461          0.268161
 Vib (V=0)   31  0.130611D+01          0.115980          0.267055
 Vib (V=0)   32  0.130557D+01          0.115800          0.266639
 Vib (V=0)   33  0.129871D+01          0.113513          0.261374
 Vib (V=0)   34  0.129778D+01          0.113201          0.260655
 Vib (V=0)   35  0.129764D+01          0.113155          0.260548
 Vib (V=0)   36  0.128879D+01          0.110182          0.253703
 Vib (V=0)   37  0.128802D+01          0.109924          0.253109
 Vib (V=0)   38  0.128559D+01          0.109103          0.251218
 Vib (V=0)   39  0.128414D+01          0.108611          0.250086
 Electronic      0.100000D+01          0.000000          0.000000
 Translational   0.750287D+10          9.875228         22.738552
 Rotational      0.327524D+07          6.515243         15.001901
 ***** Axes restored to original set *****
 -------------------------------------------------------------------
 Center     Atomic                   Forces (Hartrees/Bohr)
 Number     Number              X              Y              Z
 -------------------------------------------------------------------
      1        6          -0.000023998    0.000078920   -0.000022028
      2        6          -0.000018773   -0.000016062    0.000005077
      3        6           0.000020119    0.000008998   -0.000003085
      4        6          -0.000022951   -0.000012970    0.000004295
      5        6          -0.000008936   -0.000015688    0.000004723
      6        1          -0.000034979    0.000011562   -0.000002438
      7        1           0.000038294   -0.000023616    0.000072799
      8        1           0.000035190   -0.000059094   -0.000050926
      9        1          -0.000003529    0.000002281   -0.000000566
     10        1           0.000010950    0.000002123    0.000002316
     11        1           0.000010802    0.000000428   -0.000003593
     12        1          -0.000006462    0.000006614   -0.000001734
     13        1           0.000007469    0.000002165   -0.000000808
     14        1          -0.000001211    0.000011609    0.000013462
     15        1          -0.000001987    0.000002732   -0.000017494
 -------------------------------------------------------------------
 Cartesian Forces:  Max     0.000078920 RMS     0.000024292
 FormGI is forming the generalized inverse of G from B-inverse, IUseBI=4.

 ----------------------------------------------------------------------

 Electric dipole moment (input orientation):
 (Debye = 10**-18 statcoulomb cm , SI units = C m)
                  (au)            (Debye)         (10**-30 SI)
   Tot        0.757899D-01      0.192639D+00      0.642573D+00
   x         -0.327749D-01     -0.833054D-01     -0.277877D+00
   y          0.659030D-01      0.167509D+00      0.558749D+00
   z         -0.180748D-01     -0.459416D-01     -0.153245D+00

 Dipole polarizability, Alpha (input orientation).
 (esu units = cm**3 , SI units = C**2 m**2 J**-1)
 Alpha(0;0):
               (au)            (10**-24 esu)      (10**-40 SI)
   iso        0.553013D+02      0.819481D+01      0.911796D+01
   aniso      0.302969D+02      0.448953D+01      0.499528D+01
   xx         0.728242D+02      0.107914D+02      0.120071D+02
   yx        -0.452156D+01     -0.670026D+00     -0.745504D+00
   yy         0.528874D+02      0.783711D+01      0.871996D+01
   zx         0.450300D+00      0.667276D-01      0.742445D-01
   zy        -0.383919D+01     -0.568909D+00     -0.632996D+00
   zz         0.401924D+02      0.595589D+01      0.662683D+01

 ----------------------------------------------------------------------

 Dipole orientation:
     6          3.45629132         -1.13276666         -1.71136509
     6          0.75950166         -0.24894549         -1.79209747
     6         -0.79588750          0.26080352          0.14402012
     6         -0.09828559          0.03217786          2.89910972
     6         -3.47085482          1.13747284         -0.32597763
     1          4.17924146         -1.36969972          0.20738162
     1          4.70186259          0.20744891         -2.68904555
     1          3.66698845         -2.95024630         -2.68904555
     1         -0.00021379          0.00003670         -3.69209177
     1         -1.36116920         -1.30117130          3.86486408
     1         -0.32700096          1.85437002          3.86486408
     1          1.83998530         -0.60305331          3.20290659
     1         -3.89453658          1.27632642         -2.34366890
     1         -3.81088250          2.99700439          0.53098910
     1         -4.84555912         -0.16008815          0.53098910

 Electric dipole moment (dipole orientation):
 (Debye = 10**-18 statcoulomb cm , SI units = C m)
                  (au)            (Debye)         (10**-30 SI)
   Tot        0.757899D-01      0.192639D+00      0.642573D+00
   x          0.000000D+00      0.000000D+00      0.000000D+00
   y          0.000000D+00      0.000000D+00      0.000000D+00
   z          0.757899D-01      0.192639D+00      0.642573D+00

 Dipole polarizability, Alpha (dipole orientation).
 (esu units = cm**3 , SI units = C**2 m**2 J**-1)
 Alpha(0;0):
               (au)            (10**-24 esu)      (10**-40 SI)
   iso        0.553013D+02      0.819481D+01      0.911796D+01
   aniso      0.302969D+02      0.448953D+01      0.499528D+01
   xx         0.632303D+02      0.936977D+01      0.104253D+02
   yx        -0.790734D+01     -0.117175D+01     -0.130374D+01
   yy         0.416943D+02      0.617846D+01      0.687446D+01
   zx        -0.965867D+01     -0.143127D+01     -0.159250D+01
   zy         0.316545D+01      0.469071D+00      0.521911D+00
   zz         0.609794D+02      0.903622D+01      0.100541D+02

 ----------------------------------------------------------------------

 This type of calculation cannot be archived.


 GARBAGE IN, GARBAGE OUT
 Job cpu time:       0 days  0 hours  0 minutes  0.4 seconds.
 Elapsed time:       0 days  0 hours  0 minutes  0.3 seconds.
 File lengths (MBytes):  RWF=      6 Int=      0 D2E=      0 Chk=      2 Scr=      1
 Normal termination of Gaussian 16 at Mon Nov  7 13:11:29 2022.
