 Entering Gaussian System, Link 0=g16
 Initial command:
 /software//g16/l1.exe "/home/tmp/g16/Gau-3571763.inp" -scrdir="/home/tmp/g16/"
 Entering Link 1 = /software//g16/l1.exe PID=   3571764.
  
 Copyright (c) 1988-2019, Gaussian, Inc.  All Rights Reserved.
  
 This is part of the Gaussian(R) 16 program.  It is based on
 the Gaussian(R) 09 system (copyright 2009, Gaussian, Inc.),
 the Gaussian(R) 03 system (copyright 2003, Gaussian, Inc.),
 the Gaussian(R) 98 system (copyright 1998, Gaussian, Inc.),
 the Gaussian(R) 94 system (copyright 1995, Gaussian, Inc.),
 the Gaussian 92(TM) system (copyright 1992, Gaussian, Inc.),
 the Gaussian 90(TM) system (copyright 1990, Gaussian, Inc.),
 the Gaussian 88(TM) system (copyright 1988, Gaussian, Inc.),
 the Gaussian 86(TM) system (copyright 1986, Carnegie Mellon
 University), and the Gaussian 82(TM) system (copyright 1983,
 Carnegie Mellon University). Gaussian is a federally registered
 trademark of Gaussian, Inc.
  
 This software contains proprietary and confidential information,
 including trade secrets, belonging to Gaussian, Inc.
  
 This software is provided under written license and may be
 used, copied, transmitted, or stored only in accord with that
 written license.
  
 The following legend is applicable only to US Government
 contracts under FAR:
  
                    RESTRICTED RIGHTS LEGEND
  
 Use, reproduction and disclosure by the US Government is
 subject to restrictions as set forth in subparagraphs (a)
 and (c) of the Commercial Computer Software - Restricted
 Rights clause in FAR 52.227-19.
  
 Gaussian, Inc.
 340 Quinnipiac St., Bldg. 40, Wallingford CT 06492
  
  
 ---------------------------------------------------------------
 Warning -- This program may not be used in any manner that
 competes with the business of Gaussian, Inc. or will provide
 assistance to any competitor of Gaussian, Inc.  The licensee
 of this program is prohibited from giving any competitor of
 Gaussian, Inc. access to this program.  By using this program,
 the user acknowledges that Gaussian, Inc. is engaged in the
 business of creating and licensing software in the field of
 computational chemistry and represents and warrants to the
 licensee that it is not a competitor of Gaussian, Inc. and that
 it will not use this program in any manner prohibited above.
 ---------------------------------------------------------------
  

 Cite this work as:
 Gaussian 16, Revision C.01,
 M. J. Frisch, G. W. Trucks, H. B. Schlegel, G. E. Scuseria, 
 M. A. Robb, J. R. Cheeseman, G. Scalmani, V. Barone, 
 G. A. Petersson, H. Nakatsuji, X. Li, M. Caricato, A. V. Marenich, 
 J. Bloino, B. G. Janesko, R. Gomperts, B. Mennucci, H. P. Hratchian, 
 J. V. Ortiz, A. F. Izmaylov, J. L. Sonnenberg, D. Williams-Young, 
 F. Ding, F. Lipparini, F. Egidi, J. Goings, B. Peng, A. Petrone, 
 T. Henderson, D. Ranasinghe, V. G. Zakrzewski, J. Gao, N. Rega, 
 G. Zheng, W. Liang, M. Hada, M. Ehara, K. Toyota, R. Fukuda, 
 J. Hasegawa, M. Ishida, T. Nakajima, Y. Honda, O. Kitao, H. Nakai, 
 T. Vreven, K. Throssell, J. A. Montgomery, Jr., J. E. Peralta, 
 F. Ogliaro, M. J. Bearpark, J. J. Heyd, E. N. Brothers, K. N. Kudin, 
 V. N. Staroverov, T. A. Keith, R. Kobayashi, J. Normand, 
 K. Raghavachari, A. P. Rendell, J. C. Burant, S. S. Iyengar, 
 J. Tomasi, M. Cossi, J. M. Millam, M. Klene, C. Adamo, R. Cammi, 
 J. W. Ochterski, R. L. Martin, K. Morokuma, O. Farkas, 
 J. B. Foresman, and D. J. Fox, Gaussian, Inc., Wallingford CT, 2019.
 
 ******************************************
 Gaussian 16:  ES64L-G16RevC.01  3-Jul-2019
                 7-Nov-2022 
 ******************************************
 %nprocshared=8
 Will use up to    8 processors via shared memory.
 %chk=cis-C=CC(=C)C.chk
 --------------------------------------------------------------------
 # opt freq=hinderedrotor B3LYP/6-31g(d,p) symm=veryloose press=0.987
 --------------------------------------------------------------------
 1/18=20,19=15,26=3,38=1,113=-987000/1,3;
 2/9=110,12=2,17=2,18=2,40=1/2;
 3/5=1,6=6,7=101,11=2,25=1,30=1,71=1,74=-5/1,2,3;
 4//1;
 5/5=2,38=5/2;
 6/7=2,8=2,9=2,10=2,28=1/1;
 7//1,2,3,16;
 1/18=20,19=15,26=3/3(2);
 2/9=110/2;
 99//99;
 2/9=110/2;
 3/5=1,6=6,7=101,11=2,25=1,30=1,71=1,74=-5/1,2,3;
 4/5=5,16=3,69=1/1;
 5/5=2,38=5/2;
 7//1,2,3,16;
 1/18=20,19=15,26=3/3(-5);
 2/9=110/2;
 6/7=2,8=2,9=2,10=2,19=2,28=1/1;
 99/9=1/99;
 ---------------
 cis-C=CC(=C)C_1
 ---------------
 Symbolic Z-matrix:
 Charge =  0 Multiplicity = 1
 C                     1.6086   -0.6375   -0.8939 
 C                     1.1047   -0.2843    0.2497 
 C                    -0.2715    0.1651    0.4175 
 C                    -1.0691    0.2296   -0.6097 
 C                    -0.7322    0.5448    1.7891 
 H                     2.6244   -0.9617   -0.9752 
 H                     0.9949   -0.6038   -1.7756 
 H                     1.7293   -0.3216    1.1293 
 H                    -0.7017   -0.0527   -1.5855 
 H                    -2.1008    0.5532   -0.5602 
 H                    -1.821     0.7072    1.7522 
 H                    -0.2788    1.5381    2.0276 
 H                    -0.4435   -0.2156    2.5412 
 

 GradGradGradGradGradGradGradGradGradGradGradGradGradGradGradGradGradGrad
 Berny optimization.
 Initialization pass.
                           ----------------------------
                           !    Initial Parameters    !
                           ! (Angstroms and Degrees)  !
 --------------------------                            --------------------------
 ! Name  Definition              Value          Derivative Info.                !
 --------------------------------------------------------------------------------
 ! R1    R(1,2)                  1.2986         estimate D2E/DX2                !
 ! R2    R(1,6)                  1.0694         estimate D2E/DX2                !
 ! R3    R(1,7)                  1.0748         estimate D2E/DX2                !
 ! R4    R(2,3)                  1.4574         estimate D2E/DX2                !
 ! R5    R(2,8)                  1.0795         estimate D2E/DX2                !
 ! R6    R(3,4)                  1.3021         estimate D2E/DX2                !
 ! R7    R(3,5)                  1.4959         estimate D2E/DX2                !
 ! R8    R(4,9)                  1.0802         estimate D2E/DX2                !
 ! R9    R(4,10)                 1.0824         estimate D2E/DX2                !
 ! R10   R(5,11)                 1.1015         estimate D2E/DX2                !
 ! R11   R(5,12)                 1.1176         estimate D2E/DX2                !
 ! R12   R(5,13)                 1.1078         estimate D2E/DX2                !
 ! A1    A(2,1,6)              121.197          estimate D2E/DX2                !
 ! A2    A(2,1,7)              119.4933         estimate D2E/DX2                !
 ! A3    A(6,1,7)              119.3097         estimate D2E/DX2                !
 ! A4    A(1,2,3)              123.4804         estimate D2E/DX2                !
 ! A5    A(1,2,8)              118.9244         estimate D2E/DX2                !
 ! A6    A(3,2,8)              117.5952         estimate D2E/DX2                !
 ! A7    A(2,3,4)              120.1896         estimate D2E/DX2                !
 ! A8    A(2,3,5)              118.3368         estimate D2E/DX2                !
 ! A9    A(4,3,5)              121.4737         estimate D2E/DX2                !
 ! A10   A(3,4,9)              119.4288         estimate D2E/DX2                !
 ! A11   A(3,4,10)             124.2353         estimate D2E/DX2                !
 ! A12   A(9,4,10)             116.3358         estimate D2E/DX2                !
 ! A13   A(3,5,11)             108.1281         estimate D2E/DX2                !
 ! A14   A(3,5,12)             107.2366         estimate D2E/DX2                !
 ! A15   A(3,5,13)             111.5932         estimate D2E/DX2                !
 ! A16   A(11,5,12)            106.0888         estimate D2E/DX2                !
 ! A17   A(11,5,13)            112.4304         estimate D2E/DX2                !
 ! A18   A(12,5,13)            111.0662         estimate D2E/DX2                !
 ! D1    D(6,1,2,3)            179.9946         estimate D2E/DX2                !
 ! D2    D(6,1,2,8)             -0.0027         estimate D2E/DX2                !
 ! D3    D(7,1,2,3)              0.0026         estimate D2E/DX2                !
 ! D4    D(7,1,2,8)           -179.9946         estimate D2E/DX2                !
 ! D5    D(1,2,3,4)             -0.0032         estimate D2E/DX2                !
 ! D6    D(1,2,3,5)            179.9976         estimate D2E/DX2                !
 ! D7    D(8,2,3,4)            179.9941         estimate D2E/DX2                !
 ! D8    D(8,2,3,5)             -0.0051         estimate D2E/DX2                !
 ! D9    D(2,3,4,9)              0.0046         estimate D2E/DX2                !
 ! D10   D(2,3,4,10)           179.9996         estimate D2E/DX2                !
 ! D11   D(5,3,4,9)           -179.9962         estimate D2E/DX2                !
 ! D12   D(5,3,4,10)            -0.0012         estimate D2E/DX2                !
 ! D13   D(2,3,5,11)          -171.5223         estimate D2E/DX2                !
 ! D14   D(2,3,5,12)            74.4683         estimate D2E/DX2                !
 ! D15   D(2,3,5,13)           -47.3716         estimate D2E/DX2                !
 ! D16   D(4,3,5,11)             8.4785         estimate D2E/DX2                !
 ! D17   D(4,3,5,12)          -105.5309         estimate D2E/DX2                !
 ! D18   D(4,3,5,13)           132.6292         estimate D2E/DX2                !
 --------------------------------------------------------------------------------
 Trust Radius=3.00D-01 FncErr=1.00D-07 GrdErr=1.00D-06 EigMax=2.50D+02 EigMin=1.00D-04
 Number of steps in this run=     58 maximum allowed number of steps=    100.
 GradGradGradGradGradGradGradGradGradGradGradGradGradGradGradGradGradGrad

                          Input orientation:                          
 ---------------------------------------------------------------------
 Center     Atomic      Atomic             Coordinates (Angstroms)
 Number     Number       Type             X           Y           Z
 ---------------------------------------------------------------------
      1          6           0        1.608600   -0.637500   -0.893900
      2          6           0        1.104700   -0.284300    0.249700
      3          6           0       -0.271500    0.165100    0.417500
      4          6           0       -1.069100    0.229600   -0.609700
      5          6           0       -0.732200    0.544800    1.789100
      6          1           0        2.624400   -0.961700   -0.975200
      7          1           0        0.994900   -0.603800   -1.775600
      8          1           0        1.729300   -0.321600    1.129300
      9          1           0       -0.701700   -0.052700   -1.585500
     10          1           0       -2.100800    0.553200   -0.560200
     11          1           0       -1.821000    0.707200    1.752200
     12          1           0       -0.278800    1.538100    2.027600
     13          1           0       -0.443500   -0.215600    2.541200
 ---------------------------------------------------------------------
                    Distance matrix (angstroms):
                    1          2          3          4          5
     1  C    0.000000
     2  C    1.298648   0.000000
     3  C    2.428727   1.457410   0.000000
     4  C    2.828906   2.393338   1.302101   0.000000
     5  C    3.751755   2.536013   1.495895   2.442764   0.000000
     6  H    1.069376   2.066093   3.405221   3.898042   4.601919
     7  H    1.074783   2.053284   2.646633   2.512762   4.124226
     8  H    2.051268   1.079450   2.178701   3.340507   2.691648
     9  H    2.481489   2.585475   2.060223   1.080214   3.427224
    10  H    3.910086   3.410656   2.110179   1.082392   2.718887
    11  H    4.535661   3.435156   2.115714   2.524287   1.101463
    12  H    4.102521   2.897610   2.116035   3.048294   1.117631
    13  H    4.023559   2.766336   2.164398   3.243108   1.107795
                    6          7          8          9         10
     6  H    0.000000
     7  H    1.850406   0.000000
     8  H    2.374837   3.009555   0.000000
     9  H    3.501669   1.793962   3.654067   0.000000
    10  H    4.979424   3.521250   4.276605   1.837345   0.000000
    11  H    5.475903   4.700360   3.748475   3.601461   2.334352
    12  H    4.867687   4.546909   2.880606   3.970388   3.314577
    13  H    4.725859   4.566668   2.593407   4.137977   3.599497
                   11         12         13
    11  H    0.000000
    12  H    1.773308   0.000000
    13  H    1.836188   1.834768   0.000000
 Stoichiometry    C5H8
 Framework group  C1[X(C5H8)]
 Deg. of freedom    33
 Full point group                 C1      NOp   1
 Largest Abelian subgroup         C1      NOp   1
 Largest concise Abelian subgroup C1      NOp   1
                         Standard orientation:                         
 ---------------------------------------------------------------------
 Center     Atomic      Atomic             Coordinates (Angstroms)
 Number     Number       Type             X           Y           Z
 ---------------------------------------------------------------------
      1          6           0        1.980980   -0.124050    0.002817
      2          6           0        0.804289   -0.673480   -0.000691
      3          6           0       -0.438478    0.087808   -0.004363
      4          6           0       -0.408917    1.389573   -0.004181
      5          6           0       -1.731695   -0.664043   -0.008276
      6          1           0        2.869881   -0.718535    0.005529
      7          1           0        2.064637    0.947472    0.003134
      8          1           0        0.730959   -1.750437   -0.000889
      9          1           0        0.543717    1.898830   -0.001363
     10          1           0       -1.289707    2.018678   -0.006783
     11          1           0       -2.547886    0.058792   -0.164997
     12          1           0       -1.877414   -1.077659    1.019725
     13          1           0       -1.731260   -1.471981   -0.766199
 ---------------------------------------------------------------------
 Rotational constants (GHZ):           9.8259331           4.0413202           2.9187414
 Standard basis: 6-31G(d,p) (6D, 7F)
 There are   115 symmetry adapted cartesian basis functions of A   symmetry.
 There are   115 symmetry adapted basis functions of A   symmetry.
   115 basis functions,   196 primitive gaussians,   115 cartesian basis functions
    19 alpha electrons       19 beta electrons
       nuclear repulsion energy       162.7668963697 Hartrees.
 NAtoms=   13 NActive=   13 NUniq=   13 SFac= 1.00D+00 NAtFMM=   60 NAOKFM=F Big=F
 Integral buffers will be    131072 words long.
 Raffenetti 2 integral format.
 Two-electron integral symmetry is turned on.
 One-electron integrals computed using PRISM.
 NBasis=   115 RedAO= T EigKep=  1.74D-03  NBF=   115
 NBsUse=   115 1.00D-06 EigRej= -1.00D+00 NBFU=   115
 ExpMin= 1.61D-01 ExpMax= 3.05D+03 ExpMxC= 4.57D+02 IAcc=3 IRadAn=         5 AccDes= 0.00D+00
 Harris functional with IExCor=  402 and IRadAn=       5 diagonalized for initial guess.
 HarFok:  IExCor=  402 AccDes= 0.00D+00 IRadAn=         5 IDoV= 1 UseB2=F ITyADJ=14
 ICtDFT=  3500011 ScaDFX=  1.000000  1.000000  1.000000  1.000000
 FoFCou: FMM=F IPFlag=           0 FMFlag=      100000 FMFlg1=           0
         NFxFlg=           0 DoJE=T BraDBF=F KetDBF=T FulRan=T
         wScrn=  0.000000 ICntrl=       500 IOpCl=  0 I1Cent=   200000004 NGrid=           0
         NMat0=    1 NMatS0=      1 NMatT0=    0 NMatD0=    1 NMtDS0=    0 NMtDT0=    0
 Petite list used in FoFCou.
 Requested convergence on RMS density matrix=1.00D-08 within 128 cycles.
 Requested convergence on MAX density matrix=1.00D-06.
 Requested convergence on             energy=1.00D-06.
 No special actions if energy rises.
 Integral accuracy reduced to 1.0D-05 until final iterations.
 Initial convergence to 1.0D-05 achieved.  Increase integral accuracy.
 SCF Done:  E(RB3LYP) =  -195.305664983     A.U. after   13 cycles
            NFock= 13  Conv=0.67D-08     -V/T= 2.0082

 **********************************************************************

            Population analysis using the SCF Density.

 **********************************************************************

 Orbital symmetries:
       Occupied  (A) (A) (A) (A) (A) (A) (A) (A) (A) (A) (A) (A)
                 (A) (A) (A) (A) (A) (A) (A)
       Virtual   (A) (A) (A) (A) (A) (A) (A) (A) (A) (A) (A) (A)
                 (A) (A) (A) (A) (A) (A) (A) (A) (A) (A) (A) (A)
                 (A) (A) (A) (A) (A) (A) (A) (A) (A) (A) (A) (A)
                 (A) (A) (A) (A) (A) (A) (A) (A) (A) (A) (A) (A)
                 (A) (A) (A) (A) (A) (A) (A) (A) (A) (A) (A) (A)
                 (A) (A) (A) (A) (A) (A) (A) (A) (A) (A) (A) (A)
                 (A) (A) (A) (A) (A) (A) (A) (A) (A) (A) (A) (A)
                 (A) (A) (A) (A) (A) (A) (A) (A) (A) (A) (A) (A)
 The electronic state is 1-A.
 Alpha  occ. eigenvalues --  -10.18488 -10.18321 -10.17936 -10.17027 -10.16338
 Alpha  occ. eigenvalues --   -0.82575  -0.74437  -0.68194  -0.60144  -0.51221
 Alpha  occ. eigenvalues --   -0.48301  -0.44891  -0.41745  -0.40569  -0.38067
 Alpha  occ. eigenvalues --   -0.34649  -0.33992  -0.31008  -0.22351
 Alpha virt. eigenvalues --   -0.01757   0.09481   0.10699   0.12367   0.13518
 Alpha virt. eigenvalues --    0.14472   0.18733   0.19238   0.21436   0.24400
 Alpha virt. eigenvalues --    0.26090   0.33770   0.36840   0.41873   0.49288
 Alpha virt. eigenvalues --    0.51600   0.54634   0.56781   0.58370   0.61200
 Alpha virt. eigenvalues --    0.62671   0.66766   0.67964   0.69354   0.71534
 Alpha virt. eigenvalues --    0.73756   0.76738   0.81572   0.84815   0.85882
 Alpha virt. eigenvalues --    0.86752   0.89013   0.92229   0.96763   0.99265
 Alpha virt. eigenvalues --    1.00177   1.11191   1.15757   1.18911   1.24114
 Alpha virt. eigenvalues --    1.29702   1.33333   1.40587   1.41376   1.46388
 Alpha virt. eigenvalues --    1.48925   1.50393   1.73717   1.76659   1.80840
 Alpha virt. eigenvalues --    1.84348   1.89725   1.95371   1.98606   1.99392
 Alpha virt. eigenvalues --    2.01290   2.04179   2.06292   2.07581   2.09949
 Alpha virt. eigenvalues --    2.15224   2.17253   2.21791   2.29732   2.33791
 Alpha virt. eigenvalues --    2.34643   2.41313   2.46591   2.50394   2.52216
 Alpha virt. eigenvalues --    2.54704   2.57477   2.61130   2.66021   2.67238
 Alpha virt. eigenvalues --    2.71134   2.74367   2.82768   2.83716   2.86997
 Alpha virt. eigenvalues --    2.94452   3.00248   3.14309   3.17072   3.30151
 Alpha virt. eigenvalues --    3.37327   3.39284   3.43737   3.51997   3.58612
 Alpha virt. eigenvalues --    3.81338   4.15224   4.24154   4.35892   4.46613
 Alpha virt. eigenvalues --    4.72422
          Condensed to atoms (all electrons):
               1          2          3          4          5          6
     1  C    4.950856   0.646629  -0.026503  -0.035917   0.008661   0.371765
     2  C    0.646629   4.763344   0.432986  -0.042493  -0.064259  -0.018493
     3  C   -0.026503   0.432986   4.563257   0.680539   0.373339   0.004902
     4  C   -0.035917  -0.042493   0.680539   5.037249  -0.081224   0.000550
     5  C    0.008661  -0.064259   0.373339  -0.081224   5.040810  -0.000212
     6  H    0.371765  -0.018493   0.004902   0.000550  -0.000212   0.599335
     7  H    0.376035  -0.029935  -0.023260   0.004630   0.000017  -0.043003
     8  H   -0.062157   0.376924  -0.050538   0.008348  -0.010072  -0.009868
     9  H    0.006213  -0.027233  -0.015536   0.358376   0.008548  -0.000040
    10  H    0.000184   0.006944  -0.018817   0.366877  -0.014069  -0.000004
    11  H   -0.000263   0.004280  -0.030249  -0.005802   0.371806   0.000004
    12  H   -0.000080  -0.000531  -0.033885  -0.002039   0.368000  -0.000000
    13  H    0.000054  -0.002981  -0.030278   0.002607   0.370340  -0.000008
               7          8          9         10         11         12
     1  C    0.376035  -0.062157   0.006213   0.000184  -0.000263  -0.000080
     2  C   -0.029935   0.376924  -0.027233   0.006944   0.004280  -0.000531
     3  C   -0.023260  -0.050538  -0.015536  -0.018817  -0.030249  -0.033885
     4  C    0.004630   0.008348   0.358376   0.366877  -0.005802  -0.002039
     5  C    0.000017  -0.010072   0.008548  -0.014069   0.371806   0.368000
     6  H   -0.043003  -0.009868  -0.000040  -0.000004   0.000004  -0.000000
     7  H    0.613876   0.007629   0.002558  -0.000100  -0.000006   0.000004
     8  H    0.007629   0.659892  -0.000127  -0.000184   0.000043   0.001460
     9  H    0.002558  -0.000127   0.632586  -0.046759  -0.000017  -0.000305
    10  H   -0.000100  -0.000184  -0.046759   0.611452   0.006989   0.000473
    11  H   -0.000006   0.000043  -0.000017   0.006989   0.598573  -0.029511
    12  H    0.000004   0.001460  -0.000305   0.000473  -0.029511   0.609166
    13  H    0.000011   0.003441  -0.000263   0.000209  -0.024979  -0.030463
              13
     1  C    0.000054
     2  C   -0.002981
     3  C   -0.030278
     4  C    0.002607
     5  C    0.370340
     6  H   -0.000008
     7  H    0.000011
     8  H    0.003441
     9  H   -0.000263
    10  H    0.000209
    11  H   -0.024979
    12  H   -0.030463
    13  H    0.599778
 Mulliken charges:
               1
     1  C   -0.235478
     2  C   -0.045182
     3  C    0.174043
     4  C   -0.291702
     5  C   -0.371686
     6  H    0.095073
     7  H    0.091542
     8  H    0.075209
     9  H    0.081999
    10  H    0.086806
    11  H    0.109132
    12  H    0.117714
    13  H    0.112531
 Sum of Mulliken charges =  -0.00000
 Mulliken charges with hydrogens summed into heavy atoms:
               1
     1  C   -0.048863
     2  C    0.030026
     3  C    0.174043
     4  C   -0.122897
     5  C   -0.032309
 Electronic spatial extent (au):  <R**2>=            461.5076
 Charge=             -0.0000 electrons
 Dipole moment (field-independent basis, Debye):
    X=             -0.1499    Y=             -0.3063    Z=              0.0433  Tot=              0.3438
 Quadrupole moment (field-independent basis, Debye-Ang):
   XX=            -29.7957   YY=            -29.7620   ZZ=            -33.7046
   XY=             -0.0658   XZ=             -0.0836   YZ=              0.0952
 Traceless Quadrupole moment (field-independent basis, Debye-Ang):
   XX=              1.2917   YY=              1.3254   ZZ=             -2.6172
   XY=             -0.0658   XZ=             -0.0836   YZ=              0.0952
 Octapole moment (field-independent basis, Debye-Ang**2):
  XXX=              3.0122  YYY=             -0.1826  ZZZ=              0.4110  XYY=              1.0848
  XXY=              1.1858  XXZ=              0.1645  XZZ=             -2.0151  YZZ=             -1.5666
  YYZ=             -0.4280  XYZ=             -0.0603
 Hexadecapole moment (field-independent basis, Debye-Ang**3):
 XXXX=           -391.1327 YYYY=           -184.8449 ZZZZ=            -41.6436 XXXY=             -9.9329
 XXXZ=             -0.0455 YYYX=             -2.1687 YYYZ=              1.0687 ZZZX=             -0.8430
 ZZZY=             -0.1933 XXYY=            -93.4083 XXZZ=            -77.9341 YYZZ=            -40.1625
 XXYZ=             -0.1422 YYXZ=              0.6626 ZZXY=              2.4508
 N-N= 1.627668963697D+02 E-N=-7.771070898148D+02  KE= 1.937141311735D+02
 Calling FoFJK, ICntrl=      2127 FMM=F ISym2X=0 I1Cent= 0 IOpClX= 0 NMat=1 NMatS=1 NMatT=0.
 ***** Axes restored to original set *****
 -------------------------------------------------------------------
 Center     Atomic                   Forces (Hartrees/Bohr)
 Number     Number              X              Y              Z
 -------------------------------------------------------------------
      1        6           0.018883372   -0.010933761   -0.030383513
      2        6          -0.005730058    0.008264478    0.033578126
      3        6           0.010736594   -0.003002808    0.030826597
      4        6          -0.030792287    0.002771424   -0.036207834
      5        6           0.000061066    0.015117837    0.000813306
      6        1           0.010020425   -0.003951518   -0.004376555
      7        1           0.004070413   -0.002932139   -0.009840988
      8        1           0.002455294    0.000531887    0.007257819
      9        1          -0.005893468    0.001898943   -0.004970742
     10        1          -0.001870560    0.000262197    0.002065556
     11        1           0.004910882   -0.004105452    0.007759293
     12        1          -0.002589239   -0.013117585    0.006284996
     13        1          -0.004262433    0.009196496   -0.002806060
 -------------------------------------------------------------------
 Cartesian Forces:  Max     0.036207834 RMS     0.013412279

 GradGradGradGradGradGradGradGradGradGradGradGradGradGradGradGradGradGrad
 Berny optimization.
 FormGI is forming the generalized inverse of G from B-inverse, IUseBI=4.
 Internal  Forces:  Max     0.056916849 RMS     0.015257104
 Search for a local minimum.
 Step number   1 out of a maximum of   58
 All quantities printed in internal units (Hartrees-Bohrs-Radians)
 Mixed Optimization -- RFO/linear search
 Second derivative matrix not updated -- first step.
 ITU=  0
     Eigenvalues ---    0.00820   0.01329   0.01719   0.02392   0.03384
     Eigenvalues ---    0.03384   0.03429   0.03429   0.07272   0.07983
     Eigenvalues ---    0.16000   0.16000   0.16000   0.16000   0.16000
     Eigenvalues ---    0.16000   0.16000   0.16000   0.22000   0.25000
     Eigenvalues ---    0.25000   0.31805   0.32812   0.32835   0.33521
     Eigenvalues ---    0.35707   0.35969   0.36061   0.36632   0.37290
     Eigenvalues ---    0.37309   0.66613   0.67570
 RFO step:  Lambda=-2.73663759D-02 EMin= 8.20243107D-03
 Linear search not attempted -- first point.
 Iteration  1 RMS(Cart)=  0.16646494 RMS(Int)=  0.00750580
 Iteration  2 RMS(Cart)=  0.01548691 RMS(Int)=  0.00056059
 Iteration  3 RMS(Cart)=  0.00013272 RMS(Int)=  0.00055689
 Iteration  4 RMS(Cart)=  0.00000003 RMS(Int)=  0.00055689
 Variable       Old X    -DE/DX   Delta X   Delta X   Delta X     New X
                                 (Linear)    (Quad)   (Total)
    R1        2.45409   0.05692   0.00000   0.08096   0.08096   2.53504
    R2        2.02083   0.01105   0.00000   0.02759   0.02759   2.04842
    R3        2.03105   0.00566   0.00000   0.01437   0.01437   2.04541
    R4        2.75411   0.03126   0.00000   0.07810   0.07810   2.83220
    R5        2.03987   0.00732   0.00000   0.01886   0.01886   2.05872
    R6        2.46061   0.05472   0.00000   0.07890   0.07890   2.53951
    R7        2.82683   0.01343   0.00000   0.03778   0.03778   2.86461
    R8        2.04131   0.00199   0.00000   0.00514   0.00514   2.04645
    R9        2.04542   0.00196   0.00000   0.00509   0.00509   2.05051
   R10        2.08146  -0.00572   0.00000  -0.01578  -0.01578   2.06569
   R11        2.11202  -0.01137   0.00000  -0.03291  -0.03291   2.07911
   R12        2.09343  -0.00933   0.00000  -0.02622  -0.02622   2.06721
    A1        2.11529  -0.00155   0.00000  -0.00827  -0.00827   2.10701
    A2        2.08555   0.01041   0.00000   0.05556   0.05556   2.14111
    A3        2.08235  -0.00886   0.00000  -0.04728  -0.04728   2.03506
    A4        2.15514   0.02990   0.00000   0.12086   0.12086   2.27600
    A5        2.07562  -0.01257   0.00000  -0.04772  -0.04772   2.02791
    A6        2.05242  -0.01733   0.00000  -0.07315  -0.07315   1.97928
    A7        2.09770   0.02779   0.00000   0.10018   0.10016   2.19787
    A8        2.06537  -0.01928   0.00000  -0.06951  -0.06952   1.99585
    A9        2.12012  -0.00851   0.00000  -0.03067  -0.03068   2.08943
   A10        2.08443   0.01168   0.00000   0.06235   0.06235   2.14678
   A11        2.16832  -0.00779   0.00000  -0.04155  -0.04155   2.12676
   A12        2.03044  -0.00390   0.00000  -0.02080  -0.02081   2.00964
   A13        1.88719   0.00869   0.00000   0.05069   0.04942   1.93661
   A14        1.87163   0.00910   0.00000   0.05164   0.05036   1.92200
   A15        1.94767   0.00172   0.00000   0.00097   0.00099   1.94866
   A16        1.85160  -0.00200   0.00000   0.00835   0.00578   1.85738
   A17        1.96228  -0.00786   0.00000  -0.04858  -0.04857   1.91371
   A18        1.93847  -0.00871   0.00000  -0.05601  -0.05597   1.88250
    D1        3.14150   0.00012   0.00000   0.00205   0.00205  -3.13964
    D2       -0.00005   0.00009   0.00000   0.00141   0.00141   0.00136
    D3        0.00005   0.00004   0.00000   0.00066   0.00067   0.00071
    D4       -3.14150   0.00000   0.00000   0.00002   0.00002  -3.14148
    D5       -0.00006  -0.00020   0.00000  -0.00443  -0.00456  -0.00462
    D6        3.14155   0.00021   0.00000   0.00470   0.00483  -3.13680
    D7        3.14149  -0.00017   0.00000  -0.00380  -0.00393   3.13756
    D8       -0.00009   0.00024   0.00000   0.00534   0.00546   0.00537
    D9        0.00008  -0.00060   0.00000  -0.00852  -0.00831  -0.00823
   D10        3.14159  -0.00032   0.00000  -0.00400  -0.00379   3.13779
   D11       -3.14153  -0.00102   0.00000  -0.01795  -0.01816   3.12350
   D12       -0.00002  -0.00074   0.00000  -0.01343  -0.01364  -0.01366
   D13       -2.99363   0.00239   0.00000   0.01129   0.01258  -2.98105
   D14        1.29972  -0.00403   0.00000  -0.04865  -0.04945   1.25026
   D15       -0.82679  -0.00031   0.00000  -0.01397  -0.01370  -0.84049
   D16        0.14798   0.00280   0.00000   0.02055   0.02134   0.16931
   D17       -1.84186  -0.00362   0.00000  -0.03939  -0.04070  -1.88256
   D18        2.31482   0.00010   0.00000  -0.00471  -0.00494   2.30987
         Item               Value     Threshold  Converged?
 Maximum Force            0.056917     0.000450     NO 
 RMS     Force            0.015257     0.000300     NO 
 Maximum Displacement     0.595288     0.001800     NO 
 RMS     Displacement     0.177352     0.001200     NO 
 Predicted change in Energy=-1.492413D-02
 GradGradGradGradGradGradGradGradGradGradGradGradGradGradGradGradGradGrad

                          Input orientation:                          
 ---------------------------------------------------------------------
 Center     Atomic      Atomic             Coordinates (Angstroms)
 Number     Number       Type             X           Y           Z
 ---------------------------------------------------------------------
      1          6           0        1.761867   -0.685533   -0.891957
      2          6           0        1.090314   -0.285903    0.198410
      3          6           0       -0.328821    0.170851    0.352170
      4          6           0       -1.235758    0.272490   -0.634276
      5          6           0       -0.713613    0.549601    1.768643
      6          1           0        2.800222   -0.988871   -0.822593
      7          1           0        1.309913   -0.725408   -1.874662
      8          1           0        1.648478   -0.286567    1.133989
      9          1           0       -1.013835    0.032121   -1.666612
     10          1           0       -2.250256    0.608862   -0.447046
     11          1           0       -1.790841    0.716609    1.849812
     12          1           0       -0.229898    1.496288    2.051978
     13          1           0       -0.404473   -0.213739    2.488644
 ---------------------------------------------------------------------
                    Distance matrix (angstroms):
                    1          2          3          4          5
     1  C    0.000000
     2  C    1.341488   0.000000
     3  C    2.579191   1.498736   0.000000
     4  C    3.157525   2.532939   1.343853   0.000000
     5  C    3.838274   2.533348   1.515886   2.474559   0.000000
     6  H    1.083976   2.111965   3.537786   4.232685   4.629086
     7  H    1.082387   2.130497   2.906460   3.002465   4.358208
     8  H    2.067968   1.089429   2.174899   3.429012   2.584847
     9  H    2.969788   2.829645   2.136345   1.082934   3.486961
    10  H    4.239167   3.518043   2.126620   1.085084   2.697047
    11  H    4.701599   3.468892   2.162934   2.583806   1.093115
    12  H    4.170639   2.890481   2.157757   3.118556   1.100216
    13  H    4.042782   2.735830   2.172130   3.268039   1.093918
                    6          7          8          9         10
     6  H    0.000000
     7  H    1.843172   0.000000
     8  H    2.376544   3.059279   0.000000
     9  H    4.037551   2.452945   3.877221   0.000000
    10  H    5.310472   4.061178   4.301348   1.829948   0.000000
    11  H    5.579271   5.056263   3.653448   3.665720   2.344831
    12  H    4.860124   4.767122   2.747648   4.072622   3.333840
    13  H    4.672814   4.715863   2.460691   4.206889   3.563967
                   11         12         13
    11  H    0.000000
    12  H    1.756506   0.000000
    13  H    1.787643   1.773513   0.000000
 Stoichiometry    C5H8
 Framework group  C1[X(C5H8)]
 Deg. of freedom    33
 Full point group                 C1      NOp   1
 Largest Abelian subgroup         C1      NOp   1
 Largest concise Abelian subgroup C1      NOp   1
                         Standard orientation:                         
 ---------------------------------------------------------------------
 Center     Atomic      Atomic             Coordinates (Angstroms)
 Number     Number       Type             X           Y           Z
 ---------------------------------------------------------------------
      1          6           0        2.113411   -0.059256    0.002163
      2          6           0        0.873510   -0.571329   -0.001700
      3          6           0       -0.460030    0.112677   -0.005965
      4          6           0       -0.665042    1.440794   -0.001705
      5          6           0       -1.646515   -0.830803   -0.003007
      6          1           0        2.980968   -0.709140    0.003132
      7          1           0        2.305756    1.005903    0.003322
      8          1           0        0.802256   -1.658426   -0.002411
      9          1           0        0.142475    2.162215    0.012913
     10          1           0       -1.663240    1.866186   -0.008745
     11          1           0       -2.579571   -0.286194   -0.169458
     12          1           0       -1.741132   -1.316872    0.979470
     13          1           0       -1.539517   -1.616164   -0.756941
 ---------------------------------------------------------------------
 Rotational constants (GHZ):           9.0528990           3.7536480           2.6980358
 Standard basis: 6-31G(d,p) (6D, 7F)
 There are   115 symmetry adapted cartesian basis functions of A   symmetry.
 There are   115 symmetry adapted basis functions of A   symmetry.
   115 basis functions,   196 primitive gaussians,   115 cartesian basis functions
    19 alpha electrons       19 beta electrons
       nuclear repulsion energy       158.2198411895 Hartrees.
 NAtoms=   13 NActive=   13 NUniq=   13 SFac= 1.00D+00 NAtFMM=   60 NAOKFM=F Big=F
 Integral buffers will be    131072 words long.
 Raffenetti 2 integral format.
 Two-electron integral symmetry is turned on.
 One-electron integrals computed using PRISM.
 NBasis=   115 RedAO= T EigKep=  2.58D-03  NBF=   115
 NBsUse=   115 1.00D-06 EigRej= -1.00D+00 NBFU=   115
 Initial guess from the checkpoint file:  "cis-C=CC(=C)C.chk"
 B after Tr=     0.000000    0.000000    0.000000
         Rot=    0.999055   -0.001822   -0.000012   -0.043418 Ang=  -4.98 deg.
 ExpMin= 1.61D-01 ExpMax= 3.05D+03 ExpMxC= 4.57D+02 IAcc=3 IRadAn=         5 AccDes= 0.00D+00
 Harris functional with IExCor=  402 and IRadAn=       5 diagonalized for initial guess.
 HarFok:  IExCor=  402 AccDes= 0.00D+00 IRadAn=         5 IDoV= 1 UseB2=F ITyADJ=14
 ICtDFT=  3500011 ScaDFX=  1.000000  1.000000  1.000000  1.000000
 FoFCou: FMM=F IPFlag=           0 FMFlag=      100000 FMFlg1=           0
         NFxFlg=           0 DoJE=T BraDBF=F KetDBF=T FulRan=T
         wScrn=  0.000000 ICntrl=       500 IOpCl=  0 I1Cent=   200000004 NGrid=           0
         NMat0=    1 NMatS0=      1 NMatT0=    0 NMatD0=    1 NMtDS0=    0 NMtDT0=    0
 Petite list used in FoFCou.
 Requested convergence on RMS density matrix=1.00D-08 within 128 cycles.
 Requested convergence on MAX density matrix=1.00D-06.
 Requested convergence on             energy=1.00D-06.
 No special actions if energy rises.
 Integral accuracy reduced to 1.0D-05 until final iterations.
 Initial convergence to 1.0D-05 achieved.  Increase integral accuracy.
 SCF Done:  E(RB3LYP) =  -195.315304728     A.U. after   12 cycles
            NFock= 12  Conv=0.36D-08     -V/T= 2.0105
 Calling FoFJK, ICntrl=      2127 FMM=F ISym2X=0 I1Cent= 0 IOpClX= 0 NMat=1 NMatS=1 NMatT=0.
 ***** Axes restored to original set *****
 -------------------------------------------------------------------
 Center     Atomic                   Forces (Hartrees/Bohr)
 Number     Number              X              Y              Z
 -------------------------------------------------------------------
      1        6          -0.006589611    0.002591488    0.003100278
      2        6          -0.005210606    0.002252813    0.000158405
      3        6           0.004688451   -0.002838452   -0.000442689
      4        6           0.004659941   -0.001891039   -0.001369072
      5        6           0.000293089    0.005701554   -0.003941073
      6        1           0.000565917   -0.000175628    0.000130631
      7        1          -0.001392819   -0.000107505   -0.002849815
      8        1          -0.000502368    0.000375685    0.001137731
      9        1           0.002462588   -0.001025446   -0.001946413
     10        1           0.000155004    0.000134816    0.002102716
     11        1           0.000032700   -0.002194527    0.001288285
     12        1           0.001583142   -0.002645435    0.001459289
     13        1          -0.000745430   -0.000178325    0.001171725
 -------------------------------------------------------------------
 Cartesian Forces:  Max     0.006589611 RMS     0.002506888

 GradGradGradGradGradGradGradGradGradGradGradGradGradGradGradGradGradGrad
 Berny optimization.
 Using GEDIIS/GDIIS optimizer.
 FormGI is forming the generalized inverse of G from B-inverse, IUseBI=4.
 Internal  Forces:  Max     0.014109048 RMS     0.003498232
 Search for a local minimum.
 Step number   2 out of a maximum of   58
 All quantities printed in internal units (Hartrees-Bohrs-Radians)
 Mixed Optimization -- RFO/linear search
 Update second derivatives using D2CorX and points    1    2
 DE= -9.64D-03 DEPred=-1.49D-02 R= 6.46D-01
 TightC=F SS=  1.41D+00  RLast= 2.99D-01 DXNew= 5.0454D-01 8.9654D-01
 Trust test= 6.46D-01 RLast= 2.99D-01 DXMaxT set to 5.05D-01
 ITU=  1  0
 Use linear search instead of GDIIS.
     Eigenvalues ---    0.00820   0.01329   0.01799   0.02403   0.03384
     Eigenvalues ---    0.03385   0.03429   0.03429   0.07111   0.07361
     Eigenvalues ---    0.15669   0.16000   0.16000   0.16000   0.16000
     Eigenvalues ---    0.16000   0.16000   0.16180   0.23127   0.24847
     Eigenvalues ---    0.28142   0.31669   0.32764   0.32846   0.33500
     Eigenvalues ---    0.35698   0.35887   0.36032   0.36526   0.37223
     Eigenvalues ---    0.41385   0.66841   0.68272
 RFO step:  Lambda=-9.27861277D-04 EMin= 8.19836221D-03
 Quartic linear search produced a step of -0.18963.
 Iteration  1 RMS(Cart)=  0.04934721 RMS(Int)=  0.00059400
 Iteration  2 RMS(Cart)=  0.00088689 RMS(Int)=  0.00008413
 Iteration  3 RMS(Cart)=  0.00000019 RMS(Int)=  0.00008413
 Variable       Old X    -DE/DX   Delta X   Delta X   Delta X     New X
                                 (Linear)    (Quad)   (Total)
    R1        2.53504  -0.00471  -0.01535   0.01086  -0.00450   2.53055
    R2        2.04842   0.00060  -0.00523   0.00648   0.00124   2.04966
    R3        2.04541   0.00317  -0.00272   0.00969   0.00696   2.05238
    R4        2.83220  -0.01411  -0.01481  -0.01594  -0.03075   2.80145
    R5        2.05872   0.00072  -0.00358   0.00513   0.00155   2.06027
    R6        2.53951  -0.00423  -0.01496   0.01091  -0.00405   2.53547
    R7        2.86461  -0.00014  -0.00716   0.00655  -0.00062   2.86399
    R8        2.04645   0.00259  -0.00097   0.00677   0.00580   2.05225
    R9        2.05051   0.00026  -0.00096   0.00153   0.00057   2.05108
   R10        2.06569  -0.00027   0.00299  -0.00355  -0.00056   2.06513
   R11        2.07911  -0.00120   0.00624  -0.00903  -0.00279   2.07632
   R12        2.06721   0.00069   0.00497  -0.00311   0.00187   2.06907
    A1        2.10701  -0.00007   0.00157  -0.00152   0.00005   2.10706
    A2        2.14111  -0.00004  -0.01054   0.00757  -0.00297   2.13814
    A3        2.03506   0.00011   0.00897  -0.00605   0.00291   2.03798
    A4        2.27600  -0.00970  -0.02292  -0.01592  -0.03883   2.23717
    A5        2.02791   0.00596   0.00905   0.01534   0.02439   2.05230
    A6        1.97928   0.00373   0.01387   0.00057   0.01444   1.99372
    A7        2.19787  -0.00975  -0.01899  -0.01447  -0.03346   2.16441
    A8        1.99585   0.00270   0.01318  -0.00308   0.01010   2.00595
    A9        2.08943   0.00704   0.00582   0.01754   0.02336   2.11280
   A10        2.14678  -0.00137  -0.01182   0.00183  -0.01000   2.13678
   A11        2.12676  -0.00146   0.00788  -0.01315  -0.00527   2.12149
   A12        2.00964   0.00283   0.00395   0.01134   0.01528   2.02492
   A13        1.93661   0.00113  -0.00937   0.01403   0.00485   1.94146
   A14        1.92200   0.00123  -0.00955   0.01574   0.00638   1.92838
   A15        1.94866   0.00018  -0.00019  -0.00302  -0.00322   1.94544
   A16        1.85738   0.00118  -0.00110   0.01405   0.01334   1.87072
   A17        1.91371  -0.00197   0.00921  -0.02131  -0.01211   1.90159
   A18        1.88250  -0.00179   0.01061  -0.01969  -0.00909   1.87341
    D1       -3.13964   0.00002  -0.00039   0.00018  -0.00021  -3.13984
    D2        0.00136   0.00002  -0.00027   0.00028   0.00002   0.00138
    D3        0.00071  -0.00001  -0.00013  -0.00041  -0.00054   0.00017
    D4       -3.14148  -0.00002  -0.00000  -0.00031  -0.00031   3.14140
    D5       -0.00462  -0.00006   0.00086  -0.00146  -0.00058  -0.00519
    D6       -3.13680   0.00002  -0.00092  -0.00074  -0.00168  -3.13848
    D7        3.13756  -0.00005   0.00075  -0.00156  -0.00080   3.13676
    D8        0.00537   0.00003  -0.00104  -0.00085  -0.00190   0.00347
    D9       -0.00823   0.00002   0.00158   0.00186   0.00340  -0.00483
   D10        3.13779  -0.00009   0.00072  -0.00150  -0.00082   3.13698
   D11        3.12350  -0.00009   0.00344   0.00100   0.00448   3.12798
   D12       -0.01366  -0.00020   0.00259  -0.00236   0.00026  -0.01341
   D13       -2.98105   0.00099  -0.00239  -0.00446  -0.00704  -2.98809
   D14        1.25026  -0.00192   0.00938  -0.04021  -0.03071   1.21955
   D15       -0.84049  -0.00061   0.00260  -0.02400  -0.02144  -0.86193
   D16        0.16931   0.00116  -0.00405  -0.00361  -0.00778   0.16154
   D17       -1.88256  -0.00175   0.00772  -0.03936  -0.03144  -1.91400
   D18        2.30987  -0.00044   0.00094  -0.02315  -0.02218   2.28770
         Item               Value     Threshold  Converged?
 Maximum Force            0.014109     0.000450     NO 
 RMS     Force            0.003498     0.000300     NO 
 Maximum Displacement     0.169685     0.001800     NO 
 RMS     Displacement     0.049735     0.001200     NO 
 Predicted change in Energy=-8.331168D-04
 GradGradGradGradGradGradGradGradGradGradGradGradGradGradGradGradGradGrad

                          Input orientation:                          
 ---------------------------------------------------------------------
 Center     Atomic      Atomic             Coordinates (Angstroms)
 Number     Number       Type             X           Y           Z
 ---------------------------------------------------------------------
      1          6           0        1.716727   -0.671247   -0.897105
      2          6           0        1.088388   -0.277131    0.217826
      3          6           0       -0.316284    0.172397    0.367917
      4          6           0       -1.190559    0.254209   -0.646546
      5          6           0       -0.716791    0.557009    1.778090
      6          1           0        2.756147   -0.979767   -0.867864
      7          1           0        1.224549   -0.701530   -1.864782
      8          1           0        1.659592   -0.277985    1.146466
      9          1           0       -0.924041   -0.003707   -1.667256
     10          1           0       -2.212415    0.585097   -0.490389
     11          1           0       -1.793610    0.728493    1.850931
     12          1           0       -0.218590    1.489030    2.078692
     13          1           0       -0.429812   -0.214068    2.500519
 ---------------------------------------------------------------------
                    Distance matrix (angstroms):
                    1          2          3          4          5
     1  C    0.000000
     2  C    1.339108   0.000000
     3  C    2.538730   1.482466   0.000000
     4  C    3.061301   2.494607   1.341711   0.000000
     5  C    3.819331   2.527624   1.515559   2.488977   0.000000
     6  H    1.084635   2.110412   3.506346   4.141034   4.628612
     7  H    1.086073   2.129768   2.850063   2.868847   4.315465
     8  H    2.081851   1.090250   2.170959   3.409030   2.596797
     9  H    2.830618   2.770951   2.131271   1.086002   3.496822
    10  H    4.145115   3.484294   2.121868   1.085386   2.717292
    11  H    4.672627   3.461824   2.165887   2.612663   1.092819
    12  H    4.155433   2.879294   2.160976   3.145860   1.098739
    13  H    4.044810   2.742187   2.170307   3.271397   1.094906
                    6          7          8          9         10
     6  H    0.000000
     7  H    1.848527   0.000000
     8  H    2.398428   3.071850   0.000000
     9  H    3.890438   2.267689   3.829807   0.000000
    10  H    5.222824   3.918812   4.291461   1.841634   0.000000
    11  H    5.568688   4.996076   3.665224   3.697284   2.382800
    12  H    4.860680   4.736263   2.742071   4.093660   3.375294
    13  H    4.699216   4.693653   2.490613   4.202245   3.572375
                   11         12         13
    11  H    0.000000
    12  H    1.763796   0.000000
    13  H    1.780542   1.767228   0.000000
 Stoichiometry    C5H8
 Framework group  C1[X(C5H8)]
 Deg. of freedom    33
 Full point group                 C1      NOp   1
 Largest Abelian subgroup         C1      NOp   1
 Largest concise Abelian subgroup C1      NOp   1
                         Standard orientation:                         
 ---------------------------------------------------------------------
 Center     Atomic      Atomic             Coordinates (Angstroms)
 Number     Number       Type             X           Y           Z
 ---------------------------------------------------------------------
      1          6           0        2.076104   -0.097725    0.001099
      2          6           0        0.839710   -0.612057   -0.000958
      3          6           0       -0.453950    0.111916   -0.004456
      4          6           0       -0.565740    1.448955   -0.000340
      5          6           0       -1.682633   -0.775355   -0.001825
      6          1           0        2.945882   -0.745736    0.001991
      7          1           0        2.263200    0.972110    0.000511
      8          1           0        0.744668   -1.698157   -0.000359
      9          1           0        0.299163    2.105635    0.010377
     10          1           0       -1.534730    1.937903   -0.007414
     11          1           0       -2.592791   -0.191619   -0.160314
     12          1           0       -1.787656   -1.283934    0.966445
     13          1           0       -1.618677   -1.550604   -0.772356
 ---------------------------------------------------------------------
 Rotational constants (GHZ):           9.1075209           3.8395979           2.7469914
 Standard basis: 6-31G(d,p) (6D, 7F)
 There are   115 symmetry adapted cartesian basis functions of A   symmetry.
 There are   115 symmetry adapted basis functions of A   symmetry.
   115 basis functions,   196 primitive gaussians,   115 cartesian basis functions
    19 alpha electrons       19 beta electrons
       nuclear repulsion energy       159.0050823154 Hartrees.
 NAtoms=   13 NActive=   13 NUniq=   13 SFac= 1.00D+00 NAtFMM=   60 NAOKFM=F Big=F
 Integral buffers will be    131072 words long.
 Raffenetti 2 integral format.
 Two-electron integral symmetry is turned on.
 One-electron integrals computed using PRISM.
 NBasis=   115 RedAO= T EigKep=  2.42D-03  NBF=   115
 NBsUse=   115 1.00D-06 EigRej= -1.00D+00 NBFU=   115
 Initial guess from the checkpoint file:  "cis-C=CC(=C)C.chk"
 B after Tr=    -0.000000   -0.000000   -0.000000
         Rot=    0.999847   -0.000972   -0.000217    0.017491 Ang=  -2.01 deg.
 ExpMin= 1.61D-01 ExpMax= 3.05D+03 ExpMxC= 4.57D+02 IAcc=3 IRadAn=         5 AccDes= 0.00D+00
 Harris functional with IExCor=  402 and IRadAn=       5 diagonalized for initial guess.
 HarFok:  IExCor=  402 AccDes= 0.00D+00 IRadAn=         5 IDoV= 1 UseB2=F ITyADJ=14
 ICtDFT=  3500011 ScaDFX=  1.000000  1.000000  1.000000  1.000000
 FoFCou: FMM=F IPFlag=           0 FMFlag=      100000 FMFlg1=           0
         NFxFlg=           0 DoJE=T BraDBF=F KetDBF=T FulRan=T
         wScrn=  0.000000 ICntrl=       500 IOpCl=  0 I1Cent=   200000004 NGrid=           0
         NMat0=    1 NMatS0=      1 NMatT0=    0 NMatD0=    1 NMtDS0=    0 NMtDT0=    0
 Petite list used in FoFCou.
 Requested convergence on RMS density matrix=1.00D-08 within 128 cycles.
 Requested convergence on MAX density matrix=1.00D-06.
 Requested convergence on             energy=1.00D-06.
 No special actions if energy rises.
 Integral accuracy reduced to 1.0D-05 until final iterations.
 Initial convergence to 1.0D-05 achieved.  Increase integral accuracy.
 SCF Done:  E(RB3LYP) =  -195.316411586     A.U. after   10 cycles
            NFock= 10  Conv=0.57D-08     -V/T= 2.0103
 Calling FoFJK, ICntrl=      2127 FMM=F ISym2X=0 I1Cent= 0 IOpClX= 0 NMat=1 NMatS=1 NMatT=0.
 ***** Axes restored to original set *****
 -------------------------------------------------------------------
 Center     Atomic                   Forces (Hartrees/Bohr)
 Number     Number              X              Y              Z
 -------------------------------------------------------------------
      1        6          -0.001420438    0.000689583    0.001426818
      2        6          -0.000480175    0.000748913   -0.000136117
      3        6           0.000473274   -0.000770418    0.001147421
      4        6           0.000361869   -0.000671606   -0.000818610
      5        6          -0.000592264    0.003047053   -0.003655022
      6        1           0.000214291   -0.000176120   -0.000508969
      7        1           0.000292918   -0.000146191   -0.000253962
      8        1           0.000232653   -0.000116055   -0.000258404
      9        1           0.000373949    0.000037567    0.000313158
     10        1           0.000049971    0.000036163    0.000692996
     11        1          -0.000088228   -0.000917709    0.000758729
     12        1           0.000997431   -0.001411870    0.000792990
     13        1          -0.000415251   -0.000349312    0.000498972
 -------------------------------------------------------------------
 Cartesian Forces:  Max     0.003655022 RMS     0.000995776

 GradGradGradGradGradGradGradGradGradGradGradGradGradGradGradGradGradGrad
 Berny optimization.
 Using GEDIIS/GDIIS optimizer.
 FormGI is forming the generalized inverse of G from B-inverse, IUseBI=4.
 Internal  Forces:  Max     0.001430658 RMS     0.000615479
 Search for a local minimum.
 Step number   3 out of a maximum of   58
 All quantities printed in internal units (Hartrees-Bohrs-Radians)
 Mixed Optimization -- En-DIIS/RFO-DIIS
 Update second derivatives using D2CorX and points    1    2    3
 DE= -1.11D-03 DEPred=-8.33D-04 R= 1.33D+00
 TightC=F SS=  1.41D+00  RLast= 9.51D-02 DXNew= 8.4853D-01 2.8545D-01
 Trust test= 1.33D+00 RLast= 9.51D-02 DXMaxT set to 5.05D-01
 ITU=  1  1  0
 Use linear search instead of GDIIS.
     Eigenvalues ---    0.00802   0.01329   0.01780   0.02409   0.03381
     Eigenvalues ---    0.03385   0.03429   0.03429   0.07038   0.07253
     Eigenvalues ---    0.15591   0.15951   0.16000   0.16000   0.16000
     Eigenvalues ---    0.16000   0.16013   0.16214   0.21663   0.24763
     Eigenvalues ---    0.26071   0.31676   0.32799   0.32882   0.33509
     Eigenvalues ---    0.35703   0.36021   0.36041   0.36617   0.37230
     Eigenvalues ---    0.39835   0.64735   0.67169
 RFO step:  Lambda=-1.52062009D-04 EMin= 8.02172725D-03
 Quartic linear search produced a step of  0.16755.
 Iteration  1 RMS(Cart)=  0.02026298 RMS(Int)=  0.00035661
 Iteration  2 RMS(Cart)=  0.00037274 RMS(Int)=  0.00002735
 Iteration  3 RMS(Cart)=  0.00000016 RMS(Int)=  0.00002735
 Variable       Old X    -DE/DX   Delta X   Delta X   Delta X     New X
                                 (Linear)    (Quad)   (Total)
    R1        2.53055  -0.00109  -0.00075  -0.00069  -0.00144   2.52911
    R2        2.04966   0.00024   0.00021   0.00061   0.00082   2.05048
    R3        2.05238   0.00010   0.00117  -0.00085   0.00032   2.05270
    R4        2.80145  -0.00143  -0.00515   0.00087  -0.00428   2.79717
    R5        2.06027  -0.00010   0.00026  -0.00056  -0.00030   2.05998
    R6        2.53547  -0.00069  -0.00068  -0.00010  -0.00078   2.53469
    R7        2.86399  -0.00137  -0.00010  -0.00482  -0.00492   2.85907
    R8        2.05225  -0.00021   0.00097  -0.00168  -0.00071   2.05154
    R9        2.05108   0.00006   0.00010   0.00012   0.00022   2.05130
   R10        2.06513  -0.00001  -0.00009   0.00006  -0.00004   2.06509
   R11        2.07632  -0.00053  -0.00047  -0.00150  -0.00197   2.07435
   R12        2.06907   0.00047   0.00031   0.00134   0.00165   2.07073
    A1        2.10706   0.00044   0.00001   0.00336   0.00337   2.11043
    A2        2.13814   0.00019  -0.00050   0.00143   0.00093   2.13907
    A3        2.03798  -0.00064   0.00049  -0.00479  -0.00430   2.03368
    A4        2.23717  -0.00121  -0.00651  -0.00007  -0.00658   2.23059
    A5        2.05230   0.00024   0.00409  -0.00369   0.00039   2.05269
    A6        1.99372   0.00097   0.00242   0.00377   0.00619   1.99991
    A7        2.16441  -0.00087  -0.00561   0.00153  -0.00408   2.16033
    A8        2.00595   0.00067   0.00169   0.00153   0.00322   2.00917
    A9        2.11280   0.00020   0.00391  -0.00310   0.00082   2.11361
   A10        2.13678  -0.00012  -0.00168   0.00037  -0.00131   2.13547
   A11        2.12149  -0.00065  -0.00088  -0.00342  -0.00431   2.11719
   A12        2.02492   0.00077   0.00256   0.00305   0.00561   2.03053
   A13        1.94146   0.00087   0.00081   0.00695   0.00770   1.94916
   A14        1.92838   0.00054   0.00107   0.00444   0.00544   1.93382
   A15        1.94544  -0.00025  -0.00054  -0.00524  -0.00577   1.93967
   A16        1.87072   0.00057   0.00223   0.00946   0.01157   1.88229
   A17        1.90159  -0.00097  -0.00203  -0.00825  -0.01028   1.89131
   A18        1.87341  -0.00081  -0.00152  -0.00745  -0.00897   1.86444
    D1       -3.13984   0.00002  -0.00003   0.00088   0.00084  -3.13900
    D2        0.00138   0.00000   0.00000  -0.00010  -0.00009   0.00129
    D3        0.00017   0.00000  -0.00009   0.00027   0.00018   0.00035
    D4        3.14140  -0.00002  -0.00005  -0.00070  -0.00075   3.14064
    D5       -0.00519  -0.00007  -0.00010  -0.00418  -0.00428  -0.00947
    D6       -3.13848   0.00002  -0.00028   0.00098   0.00070  -3.13778
    D7        3.13676  -0.00006  -0.00013  -0.00324  -0.00337   3.13339
    D8        0.00347   0.00004  -0.00032   0.00193   0.00161   0.00508
    D9       -0.00483  -0.00003   0.00057   0.00008   0.00065  -0.00418
   D10        3.13698  -0.00001  -0.00014   0.00152   0.00138   3.13835
   D11        3.12798  -0.00013   0.00075  -0.00537  -0.00461   3.12337
   D12       -0.01341  -0.00011   0.00004  -0.00393  -0.00388  -0.01729
   D13       -2.98809   0.00037  -0.00118  -0.03109  -0.03222  -3.02031
   D14        1.21955  -0.00125  -0.00515  -0.05027  -0.05547   1.16409
   D15       -0.86193  -0.00043  -0.00359  -0.04046  -0.04406  -0.90599
   D16        0.16154   0.00047  -0.00130  -0.02612  -0.02736   0.13418
   D17       -1.91400  -0.00115  -0.00527  -0.04530  -0.05061  -1.96461
   D18        2.28770  -0.00034  -0.00372  -0.03548  -0.03920   2.24850
         Item               Value     Threshold  Converged?
 Maximum Force            0.001431     0.000450     NO 
 RMS     Force            0.000615     0.000300     NO 
 Maximum Displacement     0.067790     0.001800     NO 
 RMS     Displacement     0.020266     0.001200     NO 
 Predicted change in Energy=-1.233200D-04
 GradGradGradGradGradGradGradGradGradGradGradGradGradGradGradGradGradGrad

                          Input orientation:                          
 ---------------------------------------------------------------------
 Center     Atomic      Atomic             Coordinates (Angstroms)
 Number     Number       Type             X           Y           Z
 ---------------------------------------------------------------------
      1          6           0        1.711057   -0.665285   -0.896772
      2          6           0        1.089734   -0.270361    0.220887
      3          6           0       -0.315290    0.170716    0.370401
      4          6           0       -1.186107    0.244259   -0.647122
      5          6           0       -0.719578    0.561943    1.774867
      6          1           0        2.752272   -0.970054   -0.877873
      7          1           0        1.212411   -0.701785   -1.861105
      8          1           0        1.667401   -0.265643    1.145323
      9          1           0       -0.913180   -0.015405   -1.665292
     10          1           0       -2.209508    0.570823   -0.491179
     11          1           0       -1.791935    0.759981    1.845881
     12          1           0       -0.188292    1.467417    2.095478
     13          1           0       -0.465685   -0.225806    2.493007
 ---------------------------------------------------------------------
                    Distance matrix (angstroms):
                    1          2          3          4          5
     1  C    0.000000
     2  C    1.338346   0.000000
     3  C    2.531938   1.480201   0.000000
     4  C    3.046827   2.489524   1.341300   0.000000
     5  C    3.814673   2.526103   1.512955   2.486887   0.000000
     6  H    1.085067   2.112079   3.502782   4.127788   4.630096
     7  H    1.086240   2.129757   2.841610   2.849849   4.306957
     8  H    2.081291   1.090093   2.173011   3.408133   2.603631
     9  H    2.810620   2.763031   2.129827   1.085626   3.493638
    10  H    4.130775   3.478452   2.119073   1.085501   2.711999
    11  H    4.671668   3.465000   2.169044   2.616880   1.092799
    12  H    4.136364   2.857851   2.161817   3.164429   1.097698
    13  H    4.052401   2.753878   2.164556   3.255823   1.095781
                    6          7          8          9         10
     6  H    0.000000
     7  H    1.846588   0.000000
     8  H    2.401346   3.071782   0.000000
     9  H    3.868711   2.242230   3.823817   0.000000
    10  H    5.209904   3.899456   4.290483   1.844633   0.000000
    11  H    5.573300   4.990450   3.675553   3.701590   2.381596
    12  H    4.840352   4.724612   2.711068   4.107020   3.402939
    13  H    4.719321   4.690506   2.523469   4.187597   3.546957
                   11         12         13
    11  H    0.000000
    12  H    1.770433   0.000000
    13  H    1.774680   1.761245   0.000000
 Stoichiometry    C5H8
 Framework group  C1[X(C5H8)]
 Deg. of freedom    33
 Full point group                 C1      NOp   1
 Largest Abelian subgroup         C1      NOp   1
 Largest concise Abelian subgroup C1      NOp   1
                         Standard orientation:                         
 ---------------------------------------------------------------------
 Center     Atomic      Atomic             Coordinates (Angstroms)
 Number     Number       Type             X           Y           Z
 ---------------------------------------------------------------------
      1          6           0        2.069917   -0.101308    0.000439
      2          6           0        0.835269   -0.617848   -0.000435
      3          6           0       -0.453106    0.110890   -0.005426
      4          6           0       -0.553340    1.448427    0.000627
      5          6           0       -1.686527   -0.765279    0.000080
      6          1           0        2.943524   -0.744877    0.001893
      7          1           0        2.255874    0.968893   -0.002297
      8          1           0        0.742012   -1.703943    0.001609
      9          1           0        0.317723    2.096243    0.013571
     10          1           0       -1.520309    1.941614   -0.006393
     11          1           0       -2.599387   -0.178079   -0.126782
     12          1           0       -1.769382   -1.315785    0.946134
     13          1           0       -1.643335   -1.513358   -0.799449
 ---------------------------------------------------------------------
 Rotational constants (GHZ):           9.1354974           3.8528793           2.7561611
 Standard basis: 6-31G(d,p) (6D, 7F)
 There are   115 symmetry adapted cartesian basis functions of A   symmetry.
 There are   115 symmetry adapted basis functions of A   symmetry.
   115 basis functions,   196 primitive gaussians,   115 cartesian basis functions
    19 alpha electrons       19 beta electrons
       nuclear repulsion energy       159.1797292483 Hartrees.
 NAtoms=   13 NActive=   13 NUniq=   13 SFac= 1.00D+00 NAtFMM=   60 NAOKFM=F Big=F
 Integral buffers will be    131072 words long.
 Raffenetti 2 integral format.
 Two-electron integral symmetry is turned on.
 One-electron integrals computed using PRISM.
 NBasis=   115 RedAO= T EigKep=  2.39D-03  NBF=   115
 NBsUse=   115 1.00D-06 EigRej= -1.00D+00 NBFU=   115
 Initial guess from the checkpoint file:  "cis-C=CC(=C)C.chk"
 B after Tr=    -0.000000   -0.000000   -0.000000
         Rot=    0.999997   -0.001683   -0.000468    0.001987 Ang=  -0.30 deg.
 ExpMin= 1.61D-01 ExpMax= 3.05D+03 ExpMxC= 4.57D+02 IAcc=3 IRadAn=         5 AccDes= 0.00D+00
 Harris functional with IExCor=  402 and IRadAn=       5 diagonalized for initial guess.
 HarFok:  IExCor=  402 AccDes= 0.00D+00 IRadAn=         5 IDoV= 1 UseB2=F ITyADJ=14
 ICtDFT=  3500011 ScaDFX=  1.000000  1.000000  1.000000  1.000000
 FoFCou: FMM=F IPFlag=           0 FMFlag=      100000 FMFlg1=           0
         NFxFlg=           0 DoJE=T BraDBF=F KetDBF=T FulRan=T
         wScrn=  0.000000 ICntrl=       500 IOpCl=  0 I1Cent=   200000004 NGrid=           0
         NMat0=    1 NMatS0=      1 NMatT0=    0 NMatD0=    1 NMtDS0=    0 NMtDT0=    0
 Petite list used in FoFCou.
 Requested convergence on RMS density matrix=1.00D-08 within 128 cycles.
 Requested convergence on MAX density matrix=1.00D-06.
 Requested convergence on             energy=1.00D-06.
 No special actions if energy rises.
 Integral accuracy reduced to 1.0D-05 until final iterations.
 Initial convergence to 1.0D-05 achieved.  Increase integral accuracy.
 SCF Done:  E(RB3LYP) =  -195.316564322     A.U. after   10 cycles
            NFock= 10  Conv=0.50D-08     -V/T= 2.0102
 Calling FoFJK, ICntrl=      2127 FMM=F ISym2X=0 I1Cent= 0 IOpClX= 0 NMat=1 NMatS=1 NMatT=0.
 ***** Axes restored to original set *****
 -------------------------------------------------------------------
 Center     Atomic                   Forces (Hartrees/Bohr)
 Number     Number              X              Y              Z
 -------------------------------------------------------------------
      1        6          -0.000121738    0.000047600    0.000418661
      2        6           0.000297635    0.000258805   -0.000094635
      3        6          -0.000204820    0.000532713    0.000397190
      4        6          -0.000345423   -0.000367610   -0.000317891
      5        6          -0.000173981    0.000444752   -0.001109587
      6        1          -0.000001930    0.000002965   -0.000183546
      7        1           0.000203311   -0.000088228   -0.000058986
      8        1           0.000035376   -0.000012222   -0.000047515
      9        1          -0.000088950   -0.000089721    0.000124801
     10        1           0.000099058    0.000046197    0.000122088
     11        1           0.000108240   -0.000021890    0.000042392
     12        1           0.000428257   -0.000377239    0.000268616
     13        1          -0.000235034   -0.000376123    0.000438413
 -------------------------------------------------------------------
 Cartesian Forces:  Max     0.001109587 RMS     0.000304002

 GradGradGradGradGradGradGradGradGradGradGradGradGradGradGradGradGradGrad
 Berny optimization.
 Using GEDIIS/GDIIS optimizer.
 FormGI is forming the generalized inverse of G from B-inverse, IUseBI=4.
 Internal  Forces:  Max     0.000503444 RMS     0.000211129
 Search for a local minimum.
 Step number   4 out of a maximum of   58
 All quantities printed in internal units (Hartrees-Bohrs-Radians)
 Mixed Optimization -- En-DIIS/RFO-DIIS
 Swapping is turned off.
 Update second derivatives using D2CorX and points    1    2    3    4
 DE= -1.53D-04 DEPred=-1.23D-04 R= 1.24D+00
 TightC=F SS=  1.41D+00  RLast= 1.08D-01 DXNew= 8.4853D-01 3.2398D-01
 Trust test= 1.24D+00 RLast= 1.08D-01 DXMaxT set to 5.05D-01
 ITU=  1  1  1  0
     Eigenvalues ---    0.00475   0.01329   0.01807   0.02406   0.03384
     Eigenvalues ---    0.03398   0.03429   0.03431   0.07134   0.07321
     Eigenvalues ---    0.15366   0.16000   0.16000   0.16000   0.16000
     Eigenvalues ---    0.16053   0.16175   0.16579   0.22858   0.25569
     Eigenvalues ---    0.27559   0.31613   0.32596   0.33020   0.33554
     Eigenvalues ---    0.35704   0.36017   0.36119   0.36672   0.37196
     Eigenvalues ---    0.43212   0.62642   0.67097
 En-DIIS/RFO-DIIS/Sim-DIIS IScMMF=       -3 using points:     4    3
 RFO step:  Lambda=-1.32801822D-04.
 DidBck=F Rises=F RFO-DIIS coefs:    2.46241   -1.46241
 Iteration  1 RMS(Cart)=  0.02981696 RMS(Int)=  0.00078434
 Iteration  2 RMS(Cart)=  0.00080308 RMS(Int)=  0.00004410
 Iteration  3 RMS(Cart)=  0.00000048 RMS(Int)=  0.00004410
 Variable       Old X    -DE/DX   Delta X   Delta X   Delta X     New X
                                 (Linear)    (Quad)   (Total)
    R1        2.52911  -0.00010  -0.00211   0.00165  -0.00046   2.52865
    R2        2.05048  -0.00001   0.00119  -0.00071   0.00049   2.05097
    R3        2.05270  -0.00004   0.00046  -0.00003   0.00043   2.05313
    R4        2.79717   0.00033  -0.00626   0.00481  -0.00145   2.79573
    R5        2.05998  -0.00002  -0.00043   0.00044   0.00000   2.05998
    R6        2.53469   0.00025  -0.00113   0.00173   0.00059   2.53528
    R7        2.85907  -0.00045  -0.00720   0.00352  -0.00368   2.85539
    R8        2.05154  -0.00012  -0.00104   0.00065  -0.00039   2.05114
    R9        2.05130  -0.00006   0.00032  -0.00045  -0.00013   2.05117
   R10        2.06509  -0.00011  -0.00005  -0.00058  -0.00063   2.06446
   R11        2.07435  -0.00003  -0.00288   0.00174  -0.00114   2.07321
   R12        2.07073   0.00050   0.00242   0.00050   0.00292   2.07364
    A1        2.11043   0.00009   0.00492  -0.00289   0.00204   2.11247
    A2        2.13907   0.00019   0.00136   0.00079   0.00215   2.14123
    A3        2.03368  -0.00028  -0.00628   0.00210  -0.00419   2.02949
    A4        2.23059   0.00030  -0.00962   0.00789  -0.00173   2.22886
    A5        2.05269  -0.00021   0.00057  -0.00098  -0.00040   2.05229
    A6        1.99991  -0.00009   0.00905  -0.00692   0.00213   2.00204
    A7        2.16033   0.00041  -0.00597   0.00575  -0.00022   2.16011
    A8        2.00917  -0.00033   0.00470  -0.00541  -0.00071   2.00846
    A9        2.11361  -0.00007   0.00119  -0.00020   0.00098   2.11459
   A10        2.13547   0.00013  -0.00191   0.00244   0.00053   2.13600
   A11        2.11719  -0.00021  -0.00630   0.00233  -0.00397   2.11322
   A12        2.03053   0.00008   0.00821  -0.00477   0.00343   2.03396
   A13        1.94916   0.00006   0.01126  -0.00723   0.00393   1.95309
   A14        1.93382   0.00007   0.00796  -0.00449   0.00335   1.93717
   A15        1.93967   0.00017  -0.00844   0.00711  -0.00133   1.93834
   A16        1.88229   0.00017   0.01692  -0.00885   0.00786   1.89015
   A17        1.89131  -0.00024  -0.01503   0.00759  -0.00744   1.88388
   A18        1.86444  -0.00024  -0.01312   0.00626  -0.00687   1.85758
    D1       -3.13900  -0.00003   0.00123  -0.00216  -0.00093  -3.13994
    D2        0.00129  -0.00003  -0.00013  -0.00151  -0.00165  -0.00036
    D3        0.00035  -0.00001   0.00026  -0.00063  -0.00037  -0.00002
    D4        3.14064  -0.00002  -0.00110   0.00001  -0.00108   3.13956
    D5       -0.00947   0.00000  -0.00626   0.00409  -0.00217  -0.01164
    D6       -3.13778  -0.00008   0.00102  -0.00854  -0.00752   3.13789
    D7        3.13339   0.00001  -0.00493   0.00346  -0.00147   3.13192
    D8        0.00508  -0.00007   0.00235  -0.00917  -0.00682  -0.00174
    D9       -0.00418   0.00007   0.00094   0.00092   0.00185  -0.00233
   D10        3.13835   0.00000   0.00201  -0.00311  -0.00110   3.13725
   D11        3.12337   0.00015  -0.00674   0.01424   0.00750   3.13087
   D12       -0.01729   0.00008  -0.00567   0.01021   0.00455  -0.01274
   D13       -3.02031  -0.00011  -0.04712  -0.00877  -0.05582  -3.07613
   D14        1.16409  -0.00041  -0.08112   0.01038  -0.07083   1.09326
   D15       -0.90599  -0.00026  -0.06443   0.00089  -0.06355  -0.96954
   D16        0.13418  -0.00019  -0.04002  -0.02108  -0.06100   0.07317
   D17       -1.96461  -0.00049  -0.07401  -0.00193  -0.07601  -2.04063
   D18        2.24850  -0.00034  -0.05732  -0.01142  -0.06874   2.17976
         Item               Value     Threshold  Converged?
 Maximum Force            0.000503     0.000450     NO 
 RMS     Force            0.000211     0.000300     YES
 Maximum Displacement     0.099450     0.001800     NO 
 RMS     Displacement     0.029817     0.001200     NO 
 Predicted change in Energy=-6.810940D-05
 GradGradGradGradGradGradGradGradGradGradGradGradGradGradGradGradGradGrad

                          Input orientation:                          
 ---------------------------------------------------------------------
 Center     Atomic      Atomic             Coordinates (Angstroms)
 Number     Number       Type             X           Y           Z
 ---------------------------------------------------------------------
      1          6           0        1.710892   -0.659139   -0.896232
      2          6           0        1.091775   -0.258723    0.220407
      3          6           0       -0.315215    0.173557    0.369546
      4          6           0       -1.188526    0.233774   -0.647129
      5          6           0       -0.719854    0.564400    1.771922
      6          1           0        2.754620   -0.956369   -0.881492
      7          1           0        1.210190   -0.708522   -1.859183
      8          1           0        1.673485   -0.242827    1.142181
      9          1           0       -0.916666   -0.032780   -1.663581
     10          1           0       -2.213273    0.553950   -0.487314
     11          1           0       -1.782196    0.811042    1.835769
     12          1           0       -0.143622    1.430564    2.120246
     13          1           0       -0.518311   -0.248128    2.481360
 ---------------------------------------------------------------------
                    Distance matrix (angstroms):
                    1          2          3          4          5
     1  C    0.000000
     2  C    1.338104   0.000000
     3  C    2.529957   1.479435   0.000000
     4  C    3.044006   2.488965   1.341614   0.000000
     5  C    3.811118   2.523238   1.511009   2.486116   0.000000
     6  H    1.085325   2.113278   3.502244   4.125502   4.628749
     7  H    1.086470   2.130971   2.841154   2.847953   4.304686
     8  H    2.080827   1.090094   2.173767   3.408795   2.603125
     9  H    2.808062   2.763023   2.130241   1.085419   3.492569
    10  H    4.127695   3.476298   2.116963   1.085430   2.708238
    11  H    4.671929   3.466050   2.169846   2.617339   1.092465
    12  H    4.111595   2.826532   2.162050   3.191003   1.097093
    13  H    4.067727   2.775680   2.163059   3.235562   1.097325
                    6          7          8          9         10
     6  H    0.000000
     7  H    1.844607   0.000000
     8  H    2.402759   3.072410   0.000000
     9  H    3.865620   2.240179   3.824304   0.000000
    10  H    5.207341   3.898199   4.289171   1.846361   0.000000
    11  H    5.575836   4.991605   3.678781   3.702246   2.376686
    12  H    4.807045   4.716392   2.656826   4.129930   3.442568
    13  H    4.745783   4.694677   2.568540   4.169604   3.511303
                   11         12         13
    11  H    0.000000
    12  H    1.774728   0.000000
    13  H    1.770885   1.757498   0.000000
 Stoichiometry    C5H8
 Framework group  C1[X(C5H8)]
 Deg. of freedom    33
 Full point group                 C1      NOp   1
 Largest Abelian subgroup         C1      NOp   1
 Largest concise Abelian subgroup C1      NOp   1
                         Standard orientation:                         
 ---------------------------------------------------------------------
 Center     Atomic      Atomic             Coordinates (Angstroms)
 Number     Number       Type             X           Y           Z
 ---------------------------------------------------------------------
      1          6           0        2.067795   -0.101977   -0.001919
      2          6           0        0.833584   -0.618918    0.002196
      3          6           0       -0.453171    0.111132   -0.002058
      4          6           0       -0.551363    1.449141    0.001965
      5          6           0       -1.685524   -0.763198   -0.000610
      6          1           0        2.943183   -0.743555    0.000410
      7          1           0        2.255649    0.968104   -0.009234
      8          1           0        0.741214   -1.705078    0.007607
      9          1           0        0.320218    2.095981    0.010849
     10          1           0       -1.519465    1.939939   -0.005471
     11          1           0       -2.603074   -0.174354   -0.070192
     12          1           0       -1.734860   -1.371354    0.911161
     13          1           0       -1.670797   -1.466760   -0.842576
 ---------------------------------------------------------------------
 Rotational constants (GHZ):           9.1354407           3.8595181           2.7593882
 Standard basis: 6-31G(d,p) (6D, 7F)
 There are   115 symmetry adapted cartesian basis functions of A   symmetry.
 There are   115 symmetry adapted basis functions of A   symmetry.
   115 basis functions,   196 primitive gaussians,   115 cartesian basis functions
    19 alpha electrons       19 beta electrons
       nuclear repulsion energy       159.2378948750 Hartrees.
 NAtoms=   13 NActive=   13 NUniq=   13 SFac= 1.00D+00 NAtFMM=   60 NAOKFM=F Big=F
 Integral buffers will be    131072 words long.
 Raffenetti 2 integral format.
 Two-electron integral symmetry is turned on.
 One-electron integrals computed using PRISM.
 NBasis=   115 RedAO= T EigKep=  2.39D-03  NBF=   115
 NBsUse=   115 1.00D-06 EigRej= -1.00D+00 NBFU=   115
 Initial guess from the checkpoint file:  "cis-C=CC(=C)C.chk"
 B after Tr=    -0.000000   -0.000000   -0.000000
         Rot=    0.999997   -0.002459   -0.000681    0.000206 Ang=  -0.29 deg.
 ExpMin= 1.61D-01 ExpMax= 3.05D+03 ExpMxC= 4.57D+02 IAcc=3 IRadAn=         5 AccDes= 0.00D+00
 Harris functional with IExCor=  402 and IRadAn=       5 diagonalized for initial guess.
 HarFok:  IExCor=  402 AccDes= 0.00D+00 IRadAn=         5 IDoV= 1 UseB2=F ITyADJ=14
 ICtDFT=  3500011 ScaDFX=  1.000000  1.000000  1.000000  1.000000
 FoFCou: FMM=F IPFlag=           0 FMFlag=      100000 FMFlg1=           0
         NFxFlg=           0 DoJE=T BraDBF=F KetDBF=T FulRan=T
         wScrn=  0.000000 ICntrl=       500 IOpCl=  0 I1Cent=   200000004 NGrid=           0
         NMat0=    1 NMatS0=      1 NMatT0=    0 NMatD0=    1 NMtDS0=    0 NMtDT0=    0
 Petite list used in FoFCou.
 Requested convergence on RMS density matrix=1.00D-08 within 128 cycles.
 Requested convergence on MAX density matrix=1.00D-06.
 Requested convergence on             energy=1.00D-06.
 No special actions if energy rises.
 Integral accuracy reduced to 1.0D-05 until final iterations.
 Initial convergence to 1.0D-05 achieved.  Increase integral accuracy.
 SCF Done:  E(RB3LYP) =  -195.316654466     A.U. after   10 cycles
            NFock= 10  Conv=0.34D-08     -V/T= 2.0102
 Calling FoFJK, ICntrl=      2127 FMM=F ISym2X=0 I1Cent= 0 IOpClX= 0 NMat=1 NMatS=1 NMatT=0.
 ***** Axes restored to original set *****
 -------------------------------------------------------------------
 Center     Atomic                   Forces (Hartrees/Bohr)
 Number     Number              X              Y              Z
 -------------------------------------------------------------------
      1        6           0.000451299   -0.000236320   -0.000224337
      2        6           0.000612973   -0.000049817   -0.000269916
      3        6          -0.000485795    0.000475937   -0.000376193
      4        6          -0.000224761   -0.000213322    0.000489216
      5        6           0.000020287   -0.000964435    0.000831921
      6        1          -0.000112800    0.000083872    0.000113378
      7        1          -0.000000114    0.000033691    0.000186006
      8        1          -0.000067934    0.000063825    0.000004019
      9        1          -0.000183809   -0.000017149    0.000030856
     10        1           0.000022269    0.000087890   -0.000265295
     11        1           0.000051083    0.000546026   -0.000271382
     12        1          -0.000019624    0.000333643   -0.000065523
     13        1          -0.000063075   -0.000143838   -0.000182749
 -------------------------------------------------------------------
 Cartesian Forces:  Max     0.000964435 RMS     0.000322732

 GradGradGradGradGradGradGradGradGradGradGradGradGradGradGradGradGradGrad
 Berny optimization.
 Using GEDIIS/GDIIS optimizer.
 FormGI is forming the generalized inverse of G from B-inverse, IUseBI=4.
 Internal  Forces:  Max     0.000889716 RMS     0.000248496
 Search for a local minimum.
 Step number   5 out of a maximum of   58
 All quantities printed in internal units (Hartrees-Bohrs-Radians)
 Mixed Optimization -- En-DIIS/RFO-DIIS
 Swapping is turned off.
 Update second derivatives using D2CorX and points    1    2    3    4    5
 DE= -9.01D-05 DEPred=-6.81D-05 R= 1.32D+00
 TightC=F SS=  1.41D+00  RLast= 1.64D-01 DXNew= 8.4853D-01 4.9180D-01
 Trust test= 1.32D+00 RLast= 1.64D-01 DXMaxT set to 5.05D-01
 ITU=  1  1  1  1  0
     Eigenvalues ---    0.00276   0.01328   0.01812   0.02406   0.03392
     Eigenvalues ---    0.03400   0.03429   0.03431   0.07245   0.08586
     Eigenvalues ---    0.15975   0.15994   0.16000   0.16000   0.16001
     Eigenvalues ---    0.16172   0.16520   0.17209   0.22899   0.25487
     Eigenvalues ---    0.26809   0.31952   0.33001   0.33428   0.33564
[...]
     3   6     0.04   0.67  -0.01    -0.00   0.00  -0.00     0.00   0.00  -0.00
     4   6     0.04  -0.57  -0.01    -0.00   0.00   0.00     0.00  -0.00  -0.00
     5   6    -0.02  -0.07  -0.00     0.03   0.05  -0.00     0.01   0.00  -0.10
     6   1    -0.01  -0.55   0.38     0.00  -0.00   0.00     0.00  -0.00   0.00
     7   1    -0.61   0.34  -0.14    -0.00   0.00  -0.00    -0.00  -0.00   0.00
     8   1     0.77  -0.31   0.09     0.00   0.02  -0.01     0.00   0.02  -0.01
     9   1    -0.66   0.26  -0.13    -0.01  -0.01  -0.00     0.00   0.00   0.00
    10   1     0.61   0.46   0.18     0.01  -0.00   0.00    -0.00   0.00  -0.00
    11   1     0.15   0.23   0.06    -0.34   0.22  -0.04     0.05  -0.03  -0.01
    12   1    -0.14  -0.23  -0.16    -0.06  -0.43   0.55    -0.06  -0.45   0.54
    13   1    -0.11  -0.23   0.11     0.08  -0.34  -0.51    -0.10   0.44   0.62
                     28                     29                     30
                      A                      A                      A
 Frequencies --   3129.1535              3132.6187              3156.9970
 Red. masses --      1.0991                 1.0856                 1.0613
 Frc consts  --      6.3405                 6.2765                 6.2321
 IR Inten    --     13.6817                29.4896                 8.0174
  Atom  AN      X      Y      Z        X      Y      Z        X      Y      Z
     1   6    -0.00   0.00   0.00    -0.01   0.00  -0.00    -0.04  -0.02   0.02
     2   6    -0.00  -0.02   0.01    -0.00  -0.07   0.04     0.01   0.01  -0.00
     3   6    -0.00   0.00   0.00    -0.00  -0.00   0.00     0.00  -0.01  -0.00
     4   6     0.00  -0.00   0.00     0.00  -0.00   0.00    -0.01   0.06   0.00
     5   6    -0.07   0.06  -0.00     0.02  -0.02   0.00    -0.00   0.00  -0.00
     6   1     0.05  -0.03   0.01     0.17  -0.10   0.04     0.34  -0.21   0.07
     7   1     0.00   0.03  -0.02     0.00   0.08  -0.05     0.03   0.39  -0.23
     8   1     0.01   0.26  -0.13     0.03   0.86  -0.44    -0.01  -0.07   0.03
     9   1     0.02   0.01   0.00     0.02   0.02   0.01    -0.44  -0.32  -0.10
    10   1    -0.05   0.02  -0.01    -0.03   0.01  -0.00     0.54  -0.26   0.09
    11   1     0.78  -0.48   0.08    -0.22   0.14  -0.02     0.03  -0.02   0.00
    12   1    -0.03  -0.14   0.20     0.02   0.06  -0.08     0.00   0.00   0.00
    13   1     0.03  -0.16  -0.25    -0.01   0.05   0.08     0.00   0.00   0.00
                     31                     32                     33
                      A                      A                      A
 Frequencies --   3159.1610              3242.5082              3244.5805
 Red. masses --      1.0625                 1.1162                 1.1163
 Frc consts  --      6.2476                 6.9146                 6.9237
 IR Inten    --      3.2430                21.8710                 6.4769
  Atom  AN      X      Y      Z        X      Y      Z        X      Y      Z
     1   6    -0.05  -0.02   0.02    -0.04   0.06  -0.03    -0.04   0.06  -0.03
     2   6     0.01   0.02  -0.01     0.00   0.01  -0.00     0.00   0.01  -0.00
     3   6     0.00   0.00   0.00    -0.00  -0.00  -0.00     0.00  -0.00   0.00
     4   6     0.01  -0.04  -0.00    -0.07  -0.01  -0.01     0.07   0.01   0.01
     5   6     0.00  -0.00   0.00    -0.00   0.00   0.00     0.00  -0.00  -0.00
     6   1     0.44  -0.28   0.09     0.47  -0.28   0.09     0.46  -0.27   0.09
     7   1     0.04   0.51  -0.30    -0.04  -0.42   0.25    -0.05  -0.43   0.26
     8   1    -0.01  -0.17   0.09    -0.00  -0.06   0.03    -0.00  -0.06   0.03
     9   1     0.32   0.24   0.07     0.43   0.33   0.10    -0.43  -0.34  -0.10
    10   1    -0.41   0.20  -0.07     0.44  -0.22   0.07    -0.44   0.22  -0.07
    11   1    -0.03   0.02  -0.00     0.01  -0.00   0.00    -0.01   0.00  -0.00
    12   1    -0.00  -0.00   0.00    -0.00  -0.00   0.00    -0.00   0.00  -0.00
    13   1    -0.00  -0.00   0.00     0.00  -0.00  -0.00    -0.00   0.00   0.00

 -------------------
 - Thermochemistry -
 -------------------
 Temperature  3000.000 Kelvin.  Pressure   0.98700 Atm.
 Atom     1 has atomic number  6 and mass  12.00000
 Atom     2 has atomic number  6 and mass  12.00000
 Atom     3 has atomic number  6 and mass  12.00000
 Atom     4 has atomic number  6 and mass  12.00000
 Atom     5 has atomic number  6 and mass  12.00000
 Atom     6 has atomic number  1 and mass   1.00783
 Atom     7 has atomic number  1 and mass   1.00783
 Atom     8 has atomic number  1 and mass   1.00783
 Atom     9 has atomic number  1 and mass   1.00783
 Atom    10 has atomic number  1 and mass   1.00783
 Atom    11 has atomic number  1 and mass   1.00783
 Atom    12 has atomic number  1 and mass   1.00783
 Atom    13 has atomic number  1 and mass   1.00783
 Molecular mass:    68.06260 amu.
 Principal axes and moments of inertia in atomic units:
                           1         2         3
     Eigenvalues --   203.84830 464.40730 637.71441
           X            0.99977   0.02135   0.00111
           Y           -0.02133   0.99964  -0.01624
           Z           -0.00146   0.01621   0.99987
 This molecule is an asymmetric top.
 Rotational symmetry number  1.
 Rotational temperatures (Kelvin)      0.42489     0.18650     0.13582
 Rotational constants (GHZ):           8.85335     3.88612     2.83001
 Zero-point vibrational energy     297453.3 (Joules/Mol)
                                   71.09305 (Kcal/Mol)
 Warning -- explicit consideration of  33 degrees of freedom as
           vibrations may cause significant error
 Identified internal rotation modes:
    1   2
 Vibrational temperatures:    163.88   262.82   387.81   534.48   593.46
          (Kelvin)            783.51   947.76  1111.58  1158.79  1325.39
                             1353.17  1391.95  1467.65  1488.25  1537.80
                             1588.72  1826.55  1925.10  2046.50  2085.19
                             2112.39  2148.99  2170.98  2437.37  2476.58
                             4359.79  4434.08  4502.15  4507.14  4542.21
                             4545.33  4665.25  4668.23
 
 Zero-point correction=                           0.113294 (Hartree/Particle)
 Thermal correction to Energy=                    0.361276
 Thermal correction to Enthalpy=                  0.370777
 Thermal correction to Gibbs Free Energy=        -0.537625
 Sum of electronic and zero-point Energies=           -195.204335
 Sum of electronic and thermal Energies=              -194.956353
 Sum of electronic and thermal Enthalpies=            -194.946852
 Sum of electronic and thermal Free Energies=         -195.855254
 
                     E (Thermal)             CV                S
                      KCal/Mol        Cal/Mol-Kelvin    Cal/Mol-Kelvin
 Total                  226.704             67.733            190.010
 Corrected for 
 internal rot.          223.914             66.001            189.085
 Electronic               0.000              0.000              0.000
 Translational            8.942              2.981             50.067
 Rotational               8.942              2.981             32.486
 Vibrational            208.819             61.771            107.457
 Vibration     1          5.963              1.987              7.765
 Vibration     2          5.965              1.986              6.826
 Vibration     3          5.970              1.984              6.054
 Vibration     4          5.977              1.982              5.418
 Vibration     5          5.981              1.981              5.211
 Vibration     6          5.995              1.976              4.661
 Vibration     7          6.011              1.971              4.285
 Vibration     8          6.030              1.965              3.971
 Vibration     9          6.036              1.963              3.890
 Vibration    10          6.058              1.955              3.627
 Vibration    11          6.062              1.954              3.586
 Vibration    12          6.068              1.952              3.531
 Vibration    13          6.080              1.948              3.428
 Vibration    14          6.083              1.947              3.401
 Vibration    15          6.092              1.944              3.337
 Vibration    16          6.100              1.941              3.273
 Vibration    17          6.145              1.927              3.004
 Vibration    18          6.165              1.920              2.903
 Vibration    19          6.191              1.912              2.785
 Vibration    20          6.200              1.909              2.750
 Vibration    21          6.206              1.907              2.725
 Vibration    22          6.214              1.904              2.692
 Vibration    23          6.220              1.903              2.673
 Vibration    24          6.286              1.881              2.454
 Vibration    25          6.296              1.878              2.424
 Vibration    26          6.976              1.672              1.410
 Vibration    27          7.009              1.662              1.382
 Vibration    28          7.041              1.653              1.357
 Vibration    29          7.043              1.652              1.355
 Vibration    30          7.059              1.647              1.342
 Vibration    31          7.061              1.647              1.341
 Vibration    32          7.117              1.631              1.299
 Vibration    33          7.119              1.630              1.298
                       Q            Log10(Q)             Ln(Q)
 Total Bot       0.377136D+25         24.576498         56.589478
 Corrected for 
 Internal rot.   0.378164D+25         24.577680         56.592200
 Total V=0       0.569534D+30         29.755519         68.514616
 Corrected for 
 Internal rot.   0.571086D+30         29.756702         68.517338
 Vib (Bot)       0.187064D+09          8.271991         19.046963
 Vib (Bot)    1  0.183038D+02          1.262542          2.907110
 Vib (Bot)    2  0.114110D+02          1.057323          2.434576
 Vib (Bot)    3  0.773039D+01          0.888201          2.045159
 Vib (Bot)    4  0.560552D+01          0.748616          1.723752
 Vib (Bot)    5  0.504691D+01          0.703026          1.618776
 Vib (Bot)    6  0.381806D+01          0.581843          1.339744
 Vib (Bot)    7  0.315224D+01          0.498620          1.148114
 Vib (Bot)    8  0.268350D+01          0.428701          0.987120
 Vib (Bot)    9  0.257288D+01          0.410420          0.945026
 Vib (Bot)   10  0.224518D+01          0.351252          0.808787
 Vib (Bot)   11  0.219834D+01          0.342094          0.787700
 Vib (Bot)   12  0.213603D+01          0.329608          0.758951
 Vib (Bot)   13  0.202385D+01          0.306178          0.705001
 Vib (Bot)   14  0.199526D+01          0.300000          0.690776
 Vib (Bot)   15  0.192965D+01          0.285478          0.657338
 Vib (Bot)   16  0.186643D+01          0.271011          0.624026
 Vib (Bot)   17  0.161734D+01          0.208801          0.480783
 Vib (Bot)   18  0.153194D+01          0.185243          0.426537
 Vib (Bot)   19  0.143788D+01          0.157722          0.363169
 Vib (Bot)   20  0.141016D+01          0.149268          0.343703
 Vib (Bot)   21  0.139127D+01          0.143413          0.330220
 Vib (Bot)   22  0.136660D+01          0.135641          0.312325
 Vib (Bot)   23  0.135217D+01          0.131030          0.301708
 Vib (Bot)   24  0.119762D+01          0.078320          0.180339
 Vib (Bot)   25  0.117762D+01          0.071005          0.163496
 Vib (Bot)   26  0.631087D+00         -0.199911         -0.460312
 Vib (Bot)   27  0.618703D+00         -0.208518         -0.480130
 Vib (Bot)   28  0.607695D+00         -0.216315         -0.498083
 Vib (Bot)   29  0.606901D+00         -0.216882         -0.499390
 Vib (Bot)   30  0.601362D+00         -0.220864         -0.508559
 Vib (Bot)   31  0.600874D+00         -0.221217         -0.509370
 Vib (Bot)   32  0.582554D+00         -0.234664         -0.540334
 Vib (Bot)   33  0.582109D+00         -0.234995         -0.541097
 Vib (V=0)       0.282496D+14         13.451012         30.972101
 Vib (V=0)    1  0.188107D+02          1.274404          2.934423
 Vib (V=0)    2  0.119219D+02          1.076346          2.478379
 Vib (V=0)    3  0.824654D+01          0.916272          2.109794
 Vib (V=0)    4  0.612778D+01          0.787303          1.812832
 Vib (V=0)    5  0.557162D+01          0.745981          1.717685
 Vib (V=0)    6  0.435066D+01          0.638556          1.470329
 Vib (V=0)    7  0.369165D+01          0.567221          1.306074
 Vib (V=0)    8  0.322968D+01          0.509159          1.172383
 Vib (V=0)    9  0.312101D+01          0.494296          1.138158
 Vib (V=0)   10  0.280018D+01          0.447187          1.029685
 Vib (V=0)   11  0.275448D+01          0.440040          1.013229
 Vib (V=0)   12  0.269377D+01          0.430361          0.990943
 Vib (V=0)   13  0.258470D+01          0.412410          0.949608
 Vib (V=0)   14  0.255696D+01          0.407724          0.938818
 Vib (V=0)   15  0.249338D+01          0.396788          0.913637
 Vib (V=0)   16  0.243224D+01          0.386006          0.888812
 Vib (V=0)   17  0.219286D+01          0.341012          0.785209
 Vib (V=0)   18  0.211147D+01          0.324586          0.747387
 Vib (V=0)   19  0.202233D+01          0.305852          0.704251
 Vib (V=0)   20  0.199618D+01          0.300199          0.691235
 Vib (V=0)   21  0.197839D+01          0.296313          0.682285
 Vib (V=0)   22  0.195519D+01          0.291190          0.670490
 Vib (V=0)   23  0.194165D+01          0.288171          0.663538
 Vib (V=0)   24  0.179781D+01          0.254743          0.586567
 Vib (V=0)   25  0.177937D+01          0.250267          0.576260
 Vib (V=0)   26  0.130515D+01          0.115661          0.266320
 Vib (V=0)   27  0.129548D+01          0.112432          0.258884
 Vib (V=0)   28  0.128695D+01          0.109562          0.252276
 Vib (V=0)   29  0.128634D+01          0.109355          0.251800
 Vib (V=0)   30  0.128207D+01          0.107912          0.248477
 Vib (V=0)   31  0.128170D+01          0.107785          0.248185
 Vib (V=0)   32  0.126770D+01          0.103018          0.237207
 Vib (V=0)   33  0.126737D+01          0.102902          0.236941
 Electronic      0.100000D+01          0.000000          0.000000
 Translational   0.718151D+10          9.856216         22.694775
 Rotational      0.280732D+07          6.448291         14.847740
 ***** Axes restored to original set *****
 -------------------------------------------------------------------
 Center     Atomic                   Forces (Hartrees/Bohr)
 Number     Number              X              Y              Z
 -------------------------------------------------------------------
      1        6           0.000017623   -0.000032392   -0.000041646
      2        6           0.000003653    0.000020113    0.000028825
      3        6           0.000005226    0.000004304   -0.000005988
      4        6           0.000016339    0.000003134    0.000012032
      5        6          -0.000015660    0.000025026    0.000009934
      6        1          -0.000002434    0.000010623    0.000005984
      7        1          -0.000009298    0.000004966    0.000013592
      8        1          -0.000004804   -0.000006590   -0.000002283
      9        1          -0.000010812    0.000003642   -0.000003545
     10        1          -0.000004208   -0.000007663   -0.000008382
     11        1           0.000002218   -0.000012552   -0.000001645
     12        1           0.000007267   -0.000011953   -0.000011647
     13        1          -0.000005109   -0.000000658    0.000004770
 -------------------------------------------------------------------
 Cartesian Forces:  Max     0.000041646 RMS     0.000013563
 FormGI is forming the generalized inverse of G from B-inverse, IUseBI=4.

 ----------------------------------------------------------------------

 Electric dipole moment (input orientation):
 (Debye = 10**-18 statcoulomb cm , SI units = C m)
                  (au)            (Debye)         (10**-30 SI)
   Tot        0.157237D+00      0.399656D+00      0.133311D+01
   x          0.267603D-01      0.680180D-01      0.226884D+00
   y          0.891091D-02      0.226493D-01      0.755499D-01
   z          0.154686D+00      0.393173D+00      0.131148D+01

 Dipole polarizability, Alpha (input orientation).
 (esu units = cm**3 , SI units = C**2 m**2 J**-1)
 Alpha(0;0):
               (au)            (10**-24 esu)      (10**-40 SI)
   iso        0.527813D+02      0.782138D+01      0.870246D+01
   aniso      0.357866D+02      0.530302D+01      0.590041D+01
   xx         0.645040D+02      0.955850D+01      0.106353D+02
   yx        -0.109661D+02     -0.162501D+01     -0.180807D+01
   yy         0.358354D+02      0.531027D+01      0.590847D+01
   zx         0.322413D-02      0.477767D-03      0.531587D-03
   zy         0.898359D+01      0.133123D+01      0.148119D+01
   zz         0.580045D+02      0.859538D+01      0.956365D+01

 ----------------------------------------------------------------------

 Dipole orientation:
     6          3.35114538         -1.46915285         -1.05875593
     6          2.07553980         -0.10217006          0.64168410
     6         -0.66180999          0.45337779          0.57918132
     6         -1.92046326          0.81946645         -1.58979403
     6         -1.95051318          0.63005230          3.12149872
     1          5.37354845         -1.76829429         -0.88977407
     1          2.41391833         -2.34493903         -2.66150584
     1          3.09694138          0.64372658          2.27003825
     1         -0.96672680          0.78623514         -3.40526247
     1         -3.93928091          1.18780507         -1.60670186
     1         -3.95431758          1.09150438          2.93028668
     1         -1.06377904          2.08981224          4.29814826
     1         -1.79010744         -1.15215196          4.16746592

 Electric dipole moment (dipole orientation):
 (Debye = 10**-18 statcoulomb cm , SI units = C m)
                  (au)            (Debye)         (10**-30 SI)
   Tot        0.157237D+00      0.399656D+00      0.133311D+01
   x          0.000000D+00      0.000000D+00      0.000000D+00
   y          0.000000D+00      0.000000D+00      0.000000D+00
   z          0.157237D+00      0.399656D+00      0.133311D+01

 Dipole polarizability, Alpha (dipole orientation).
 (esu units = cm**3 , SI units = C**2 m**2 J**-1)
 Alpha(0;0):
               (au)            (10**-24 esu)      (10**-40 SI)
   iso        0.527813D+02      0.782138D+01      0.870246D+01
   aniso      0.357866D+02      0.530302D+01      0.590041D+01
   xx         0.644339D+02      0.954812D+01      0.106237D+02
   yx        -0.122365D+02     -0.181326D+01     -0.201752D+01
   yy         0.349972D+02      0.518605D+01      0.577026D+01
   zx         0.366204D+00      0.542658D-01      0.603788D-01
   zy         0.567466D+01      0.840898D+00      0.935625D+00
   zz         0.589128D+02      0.872998D+01      0.971341D+01

 ----------------------------------------------------------------------

 This type of calculation cannot be archived.


 AND HERE I AM, FOR ALL MY LORE,
 THE WRETCHED FOOL I WAS BEFORE.
 CALLED MASTER OF ARTS, AND DOCTOR TO BOOT,
 FOR TEN YEARS ALMOST I CONFUTE
 AND UP AND DOWN, WHEREVER IT GOES
 I DRAG MY STUDENTS BY THE NOSE --
 AND SEE THAT FOR ALL OUR SCIENCE AND ART
 WE CAN KNOW NOTHING.  IT BURNS MY HEART.

                                       -- FAUST
 Job cpu time:       0 days  0 hours  0 minutes  0.4 seconds.
 Elapsed time:       0 days  0 hours  0 minutes  0.3 seconds.
 File lengths (MBytes):  RWF=      6 Int=      0 D2E=      0 Chk=      2 Scr=      1
 Normal termination of Gaussian 16 at Mon Nov  7 12:49:50 2022.
