 Entering Gaussian System, Link 0=g16
 Initial command:
 /software//g16/l1.exe "/home/tmp/g16/Gau-3560134.inp" -scrdir="/home/tmp/g16/"
 Entering Link 1 = /software//g16/l1.exe PID=   3560136.
  
 Copyright (c) 1988-2019, Gaussian, Inc.  All Rights Reserved.
  
 This is part of the Gaussian(R) 16 program.  It is based on
 the Gaussian(R) 09 system (copyright 2009, Gaussian, Inc.),
 the Gaussian(R) 03 system (copyright 2003, Gaussian, Inc.),
 the Gaussian(R) 98 system (copyright 1998, Gaussian, Inc.),
 the Gaussian(R) 94 system (copyright 1995, Gaussian, Inc.),
 the Gaussian 92(TM) system (copyright 1992, Gaussian, Inc.),
 the Gaussian 90(TM) system (copyright 1990, Gaussian, Inc.),
 the Gaussian 88(TM) system (copyright 1988, Gaussian, Inc.),
 the Gaussian 86(TM) system (copyright 1986, Carnegie Mellon
 University), and the Gaussian 82(TM) system (copyright 1983,
 Carnegie Mellon University). Gaussian is a federally registered
 trademark of Gaussian, Inc.
  
 This software contains proprietary and confidential information,
 including trade secrets, belonging to Gaussian, Inc.
  
 This software is provided under written license and may be
 used, copied, transmitted, or stored only in accord with that
 written license.
  
 The following legend is applicable only to US Government
 contracts under FAR:
  
                    RESTRICTED RIGHTS LEGEND
  
 Use, reproduction and disclosure by the US Government is
 subject to restrictions as set forth in subparagraphs (a)
 and (c) of the Commercial Computer Software - Restricted
 Rights clause in FAR 52.227-19.
  
 Gaussian, Inc.
 340 Quinnipiac St., Bldg. 40, Wallingford CT 06492
  
  
 ---------------------------------------------------------------
 Warning -- This program may not be used in any manner that
 competes with the business of Gaussian, Inc. or will provide
 assistance to any competitor of Gaussian, Inc.  The licensee
 of this program is prohibited from giving any competitor of
 Gaussian, Inc. access to this program.  By using this program,
 the user acknowledges that Gaussian, Inc. is engaged in the
 business of creating and licensing software in the field of
 computational chemistry and represents and warrants to the
 licensee that it is not a competitor of Gaussian, Inc. and that
 it will not use this program in any manner prohibited above.
 ---------------------------------------------------------------
  

 Cite this work as:
 Gaussian 16, Revision C.01,
 M. J. Frisch, G. W. Trucks, H. B. Schlegel, G. E. Scuseria, 
 M. A. Robb, J. R. Cheeseman, G. Scalmani, V. Barone, 
 G. A. Petersson, H. Nakatsuji, X. Li, M. Caricato, A. V. Marenich, 
 J. Bloino, B. G. Janesko, R. Gomperts, B. Mennucci, H. P. Hratchian, 
 J. V. Ortiz, A. F. Izmaylov, J. L. Sonnenberg, D. Williams-Young, 
 F. Ding, F. Lipparini, F. Egidi, J. Goings, B. Peng, A. Petrone, 
 T. Henderson, D. Ranasinghe, V. G. Zakrzewski, J. Gao, N. Rega, 
 G. Zheng, W. Liang, M. Hada, M. Ehara, K. Toyota, R. Fukuda, 
 J. Hasegawa, M. Ishida, T. Nakajima, Y. Honda, O. Kitao, H. Nakai, 
 T. Vreven, K. Throssell, J. A. Montgomery, Jr., J. E. Peralta, 
 F. Ogliaro, M. J. Bearpark, J. J. Heyd, E. N. Brothers, K. N. Kudin, 
 V. N. Staroverov, T. A. Keith, R. Kobayashi, J. Normand, 
 K. Raghavachari, A. P. Rendell, J. C. Burant, S. S. Iyengar, 
 J. Tomasi, M. Cossi, J. M. Millam, M. Klene, C. Adamo, R. Cammi, 
 J. W. Ochterski, R. L. Martin, K. Morokuma, O. Farkas, 
 J. B. Foresman, and D. J. Fox, Gaussian, Inc., Wallingford CT, 2019.
 
 ******************************************
 Gaussian 16:  ES64L-G16RevC.01  3-Jul-2019
                 7-Nov-2022 
 ******************************************
 %nprocshared=8
 Will use up to    8 processors via shared memory.
 %chk=cis-CC=CC.chk
 ----------------------------------------------------------------------
 # opt freq=hinderedrotor B3LYP/6-31g(d,p) symm=veryloose press=0.987 i
 nt=superfine
 ----------------------------------------------------------------------
 1/18=20,19=15,26=5,38=1,113=-987000/1,3;
 2/9=110,12=2,17=2,18=2,40=1/2;
 3/5=1,6=6,7=101,11=2,25=1,30=1,71=1,74=-5,75=-7/1,2,3;
 4//1;
 5/5=2,38=5/2;
 6/7=2,8=2,9=2,10=2,28=1/1;
 7//1,2,3,16;
 1/18=20,19=15,26=5/3(2);
 2/9=110/2;
 99//99;
 2/9=110/2;
 3/5=1,6=6,7=101,11=2,25=1,30=1,71=1,74=-5,75=-7/1,2,3;
 4/5=5,16=3,69=1/1;
 5/5=2,38=5/2;
 7//1,2,3,16;
 1/18=20,19=15,26=5/3(-5);
 2/9=110/2;
 6/7=2,8=2,9=2,10=2,19=2,28=1/1;
 99/9=1/99;
 -----------
 cis-CC=CC_1
 -----------
 Symbolic Z-matrix:
 Charge =  0 Multiplicity = 1
 C                    -1.48253  -0.71277   0.012 
 C                     0.       -0.95538   0. 
 C                     0.95652  -0.02098  -0.009 
 C                     0.74009   1.47494  -0.003 
 H                    -1.73048   0.35168   0.033 
 H                    -1.93849  -1.17421   0.88507 
 H                    -1.97449  -1.16221  -0.87307 
 H                     0.30646  -2.00112  -0.012 
 H                     1.9919   -0.35748  -0.036 
 H                     0.14141   1.66563   0.79645 
 H                     1.69377   2.00918   0.171 
 H                     0.22541   1.95363  -0.97045 
 

 GradGradGradGradGradGradGradGradGradGradGradGradGradGradGradGradGradGrad
 Berny optimization.
 Initialization pass.
                           ----------------------------
                           !    Initial Parameters    !
                           ! (Angstroms and Degrees)  !
 --------------------------                            --------------------------
 ! Name  Definition              Value          Derivative Info.                !
 --------------------------------------------------------------------------------
 ! R1    R(1,2)                  1.5023         estimate D2E/DX2                !
 ! R2    R(1,5)                  1.0931         estimate D2E/DX2                !
 ! R3    R(1,6)                  1.0877         estimate D2E/DX2                !
 ! R4    R(1,7)                  1.1079         estimate D2E/DX2                !
 ! R5    R(2,3)                  1.3372         estimate D2E/DX2                !
 ! R6    R(2,8)                  1.0898         estimate D2E/DX2                !
 ! R7    R(3,4)                  1.5115         estimate D2E/DX2                !
 ! R8    R(3,9)                  1.089          estimate D2E/DX2                !
 ! R9    R(4,10)                 1.0168         estimate D2E/DX2                !
 ! R10   R(4,11)                 1.1069         estimate D2E/DX2                !
 ! R11   R(4,12)                 1.1958         estimate D2E/DX2                !
 ! A1    A(2,1,5)              112.4105         estimate D2E/DX2                !
 ! A2    A(2,1,6)              110.5842         estimate D2E/DX2                !
 ! A3    A(2,1,7)              111.4889         estimate D2E/DX2                !
 ! A4    A(5,1,6)              107.6138         estimate D2E/DX2                !
 ! A5    A(5,1,7)              108.0386         estimate D2E/DX2                !
 ! A6    A(6,1,7)              106.4394         estimate D2E/DX2                !
 ! A7    A(1,2,3)              126.3781         estimate D2E/DX2                !
 ! A8    A(1,2,8)              115.6303         estimate D2E/DX2                !
 ! A9    A(3,2,8)              117.9888         estimate D2E/DX2                !
 ! A10   A(2,3,4)              126.0941         estimate D2E/DX2                !
 ! A11   A(2,3,9)              117.6668         estimate D2E/DX2                !
 ! A12   A(4,3,9)              116.2342         estimate D2E/DX2                !
 ! A13   A(3,4,10)             105.8444         estimate D2E/DX2                !
 ! A14   A(3,4,11)             110.7893         estimate D2E/DX2                !
 ! A15   A(3,4,12)             117.0383         estimate D2E/DX2                !
 ! A16   A(10,4,11)            107.0489         estimate D2E/DX2                !
 ! A17   A(10,4,12)            107.914          estimate D2E/DX2                !
 ! A18   A(11,4,12)            107.7464         estimate D2E/DX2                !
 ! D1    D(5,1,2,3)             -1.1438         estimate D2E/DX2                !
 ! D2    D(5,1,2,8)            179.4782         estimate D2E/DX2                !
 ! D3    D(6,1,2,3)           -121.4431         estimate D2E/DX2                !
 ! D4    D(6,1,2,8)             59.1789         estimate D2E/DX2                !
 ! D5    D(7,1,2,3)            120.3448         estimate D2E/DX2                !
 ! D6    D(7,1,2,8)            -59.0332         estimate D2E/DX2                !
 ! D7    D(1,2,3,4)              0.2783         estimate D2E/DX2                !
 ! D8    D(1,2,3,9)           -178.8825         estimate D2E/DX2                !
 ! D9    D(8,2,3,4)            179.6432         estimate D2E/DX2                !
 ! D10   D(8,2,3,9)              0.4824         estimate D2E/DX2                !
 ! D11   D(2,3,4,10)            54.0593         estimate D2E/DX2                !
 ! D12   D(2,3,4,11)           169.7643         estimate D2E/DX2                !
 ! D13   D(2,3,4,12)           -66.1937         estimate D2E/DX2                !
 ! D14   D(9,3,4,10)          -126.7694         estimate D2E/DX2                !
 ! D15   D(9,3,4,11)           -11.0643         estimate D2E/DX2                !
 ! D16   D(9,3,4,12)           112.9776         estimate D2E/DX2                !
 --------------------------------------------------------------------------------
 Trust Radius=3.00D-01 FncErr=1.00D-07 GrdErr=1.00D-07 EigMax=2.50D+02 EigMin=1.00D-04
 Number of steps in this run=     55 maximum allowed number of steps=    100.
 GradGradGradGradGradGradGradGradGradGradGradGradGradGradGradGradGradGrad

                          Input orientation:                          
 ---------------------------------------------------------------------
 Center     Atomic      Atomic             Coordinates (Angstroms)
 Number     Number       Type             X           Y           Z
 ---------------------------------------------------------------------
      1          6           0       -1.482530   -0.712769    0.012000
      2          6           0        0.000000   -0.955376    0.000000
      3          6           0        0.956522   -0.020978   -0.009000
      4          6           0        0.740094    1.474941   -0.003000
      5          1           0       -1.730478    0.351681    0.033000
      6          1           0       -1.938487   -1.174210    0.885066
      7          1           0       -1.974487   -1.162210   -0.873066
      8          1           0        0.306462   -2.001124   -0.012000
      9          1           0        1.991898   -0.357480   -0.036000
     10          1           0        0.141405    1.665626    0.796448
     11          1           0        1.693765    2.009178    0.171000
     12          1           0        0.225405    1.953626   -0.970448
 ---------------------------------------------------------------------
                    Distance matrix (angstroms):
                    1          2          3          4          5
     1  C    0.000000
     2  C    1.502297   0.000000
     3  C    2.535348   1.337204   0.000000
     4  C    3.118711   2.540510   1.511506   0.000000
     5  H    1.093148   2.168880   2.713044   2.714173   0.000000
     6  H    1.087690   2.142186   3.241971   3.870589   1.760008
     7  H    1.107863   2.168784   3.261876   3.883366   1.781113
     8  H    2.204751   1.089794   2.084122   3.503019   3.112369
     9  H    3.492876   2.080008   1.089021   2.219430   3.789954
    10  H    2.984843   2.742987   2.039067   1.016812   2.411068
    11  H    4.186063   3.418576   2.167363   1.106876   3.806807
    12  H    3.315405   3.074877   2.314730   1.195826   2.720039
                    6          7          8          9         10
     6  H    0.000000
     7  H    1.758541   0.000000
     8  H    2.555056   2.578360   0.000000
     9  H    4.118657   4.132854   2.354323   0.000000
    10  H    3.521146   3.906524   3.758442   2.865354   0.000000
    11  H    4.882326   4.960227   4.247425   2.394327   1.708518
    12  H    4.231869   3.815422   4.070042   3.055307   1.792183
                   11         12
    11  H    0.000000
    12  H    1.860664   0.000000
 Stoichiometry    C4H8
 Framework group  C1[X(C4H8)]
 Deg. of freedom    30
 Full point group                 C1      NOp   1
 Largest Abelian subgroup         C1      NOp   1
 Largest concise Abelian subgroup C1      NOp   1
                         Standard orientation:                         
 ---------------------------------------------------------------------
 Center     Atomic      Atomic             Coordinates (Angstroms)
 Number     Number       Type             X           Y           Z
 ---------------------------------------------------------------------
      1          6           0       -1.555270   -0.535864   -0.008289
      2          6           0       -0.671886    0.679153    0.007955
      3          6           0        0.665289    0.687557    0.010395
      4          6           0        1.563431   -0.528021   -0.008671
      5          1           0       -0.983048   -1.466783   -0.038724
      6          1           0       -2.208251   -0.522314   -0.878060
      7          1           0       -2.216702   -0.568630    0.879852
      8          1           0       -1.189402    1.637992    0.029316
      9          1           0        1.164829    1.654739    0.041783
     10          1           0        1.267964   -1.078953   -0.810593
     11          1           0        2.616254   -0.235860   -0.185817
     12          1           0        1.538968   -1.237138    0.953906
 ---------------------------------------------------------------------
 Rotational constants (GHZ):          15.7316617           5.2206007           4.1230990
 Standard basis: 6-31G(d,p) (6D, 7F)
 There are   100 symmetry adapted cartesian basis functions of A   symmetry.
 There are   100 symmetry adapted basis functions of A   symmetry.
   100 basis functions,   168 primitive gaussians,   100 cartesian basis functions
    16 alpha electrons       16 beta electrons
       nuclear repulsion energy       117.4690615774 Hartrees.
 NAtoms=   12 NActive=   12 NUniq=   12 SFac= 1.00D+00 NAtFMM=   60 NAOKFM=F Big=F
 Integral buffers will be    131072 words long.
 Raffenetti 2 integral format.
 Two-electron integral symmetry is turned on.
 One-electron integrals computed using PRISM.
 NBasis=   100 RedAO= T EigKep=  3.51D-03  NBF=   100
 NBsUse=   100 1.00D-06 EigRej= -1.00D+00 NBFU=   100
 ExpMin= 1.61D-01 ExpMax= 3.05D+03 ExpMxC= 4.57D+02 IAcc=3 IRadAn=         7 AccDes= 0.00D+00
 Harris functional with IExCor=  402 and IRadAn=       7 diagonalized for initial guess.
 HarFok:  IExCor=  402 AccDes= 0.00D+00 IRadAn=         7 IDoV= 1 UseB2=F ITyADJ=14
 ICtDFT=  3500011 ScaDFX=  1.000000  1.000000  1.000000  1.000000
 FoFCou: FMM=F IPFlag=           0 FMFlag=      100000 FMFlg1=           0
         NFxFlg=           0 DoJE=T BraDBF=F KetDBF=T FulRan=T
         wScrn=  0.000000 ICntrl=       500 IOpCl=  0 I1Cent=   200000004 NGrid=           0
         NMat0=    1 NMatS0=      1 NMatT0=    0 NMatD0=    1 NMtDS0=    0 NMtDT0=    0
 Petite list used in FoFCou.
 Keep R1 ints in memory in canonical form, NReq=20199543.
 Requested convergence on RMS density matrix=1.00D-08 within 128 cycles.
 Requested convergence on MAX density matrix=1.00D-06.
 Requested convergence on             energy=1.00D-06.
 No special actions if energy rises.
 Integral accuracy reduced to 1.0D-05 until final iterations.
 Initial convergence to 1.0D-05 achieved.  Increase integral accuracy.
 SCF Done:  E(RB3LYP) =  -157.223358855     A.U. after   11 cycles
            NFock= 11  Conv=0.84D-08     -V/T= 2.0104

 **********************************************************************

            Population analysis using the SCF Density.

 **********************************************************************

 Orbital symmetries:
       Occupied  (A) (A) (A) (A) (A) (A) (A) (A) (A) (A) (A) (A)
                 (A) (A) (A) (A)
       Virtual   (A) (A) (A) (A) (A) (A) (A) (A) (A) (A) (A) (A)
                 (A) (A) (A) (A) (A) (A) (A) (A) (A) (A) (A) (A)
                 (A) (A) (A) (A) (A) (A) (A) (A) (A) (A) (A) (A)
                 (A) (A) (A) (A) (A) (A) (A) (A) (A) (A) (A) (A)
                 (A) (A) (A) (A) (A) (A) (A) (A) (A) (A) (A) (A)
                 (A) (A) (A) (A) (A) (A) (A) (A) (A) (A) (A) (A)
                 (A) (A) (A) (A) (A) (A) (A) (A) (A) (A) (A) (A)
 The electronic state is 1-A.
 Alpha  occ. eigenvalues --  -10.17923 -10.17797 -10.17762 -10.17705  -0.78975
 Alpha  occ. eigenvalues --   -0.71601  -0.64861  -0.51983  -0.47076  -0.41239
 Alpha  occ. eigenvalues --   -0.40421  -0.39419  -0.38017  -0.35336  -0.32645
 Alpha  occ. eigenvalues --   -0.23438
 Alpha virt. eigenvalues --    0.02687   0.09911   0.12074   0.14643   0.16166
 Alpha virt. eigenvalues --    0.17823   0.18812   0.20178   0.20832   0.22355
 Alpha virt. eigenvalues --    0.31899   0.40360   0.49249   0.50601   0.53705
 Alpha virt. eigenvalues --    0.57969   0.61135   0.62211   0.62976   0.67815
 Alpha virt. eigenvalues --    0.69944   0.76939   0.77373   0.78696   0.83442
 Alpha virt. eigenvalues --    0.85961   0.87057   0.88614   0.89310   0.90037
 Alpha virt. eigenvalues --    0.94280   0.99857   1.12554   1.21555   1.24705
 Alpha virt. eigenvalues --    1.30165   1.36763   1.41278   1.41670   1.61277
 Alpha virt. eigenvalues --    1.70762   1.74458   1.79592   1.85123   1.90054
 Alpha virt. eigenvalues --    1.94891   1.97655   2.02261   2.04875   2.05424
 Alpha virt. eigenvalues --    2.08735   2.12243   2.17139   2.20570   2.20657
 Alpha virt. eigenvalues --    2.35234   2.36674   2.38145   2.41166   2.44868
 Alpha virt. eigenvalues --    2.45273   2.54365   2.60888   2.65182   2.67830
 Alpha virt. eigenvalues --    2.72037   2.74598   2.86148   2.87018   2.90233
 Alpha virt. eigenvalues --    2.97726   3.08306   3.13150   3.22416   3.29028
 Alpha virt. eigenvalues --    3.37077   3.43110   3.47011   3.58533   3.62042
 Alpha virt. eigenvalues --    4.16128   4.36829   4.46746   4.64262
          Condensed to atoms (all electrons):
               1          2          3          4          5          6
     1  C    4.944096   0.387088  -0.051250  -0.014119   0.383391   0.379023
     2  C    0.387088   4.779090   0.697970  -0.048101  -0.030312  -0.032581
     3  C   -0.051250   0.697970   4.815581   0.373861  -0.011431   0.000996
     4  C   -0.014119  -0.048101   0.373861   4.943501   0.005882   0.000248
     5  H    0.383391  -0.030312  -0.011431   0.005882   0.598212  -0.031856
     6  H    0.379023  -0.032581   0.000996   0.000248  -0.031856   0.604633
     7  H    0.376542  -0.030576   0.000867   0.000202  -0.029661  -0.035367
     8  H   -0.060451   0.373425  -0.032961   0.006225   0.005004  -0.001605
     9  H    0.006449  -0.030506   0.375848  -0.059954   0.000082  -0.000168
    10  H    0.002253  -0.009549  -0.040124   0.391882   0.001102   0.000360
    11  H    0.000311   0.003896  -0.024609   0.378474  -0.000143  -0.000004
    12  H    0.000751  -0.005234  -0.025658   0.366612   0.000687  -0.000120
               7          8          9         10         11         12
     1  C    0.376542  -0.060451   0.006449   0.002253   0.000311   0.000751
     2  C   -0.030576   0.373425  -0.030506  -0.009549   0.003896  -0.005234
     3  C    0.000867  -0.032961   0.375848  -0.040124  -0.024609  -0.025658
     4  C    0.000202   0.006225  -0.059954   0.391882   0.378474   0.366612
     5  H   -0.029661   0.005004   0.000082   0.001102  -0.000143   0.000687
     6  H   -0.035367  -0.001605  -0.000168   0.000360  -0.000004  -0.000120
     7  H    0.605680  -0.001330  -0.000177  -0.000223  -0.000007   0.000337
     8  H   -0.001330   0.646435  -0.011786  -0.000136  -0.000179  -0.000069
     9  H   -0.000177  -0.011786   0.638492   0.005234  -0.006996   0.002571
    10  H   -0.000223  -0.000136   0.005234   0.579449  -0.033424  -0.030735
    11  H   -0.000007  -0.000179  -0.006996  -0.033424   0.608021  -0.029160
    12  H    0.000337  -0.000069   0.002571  -0.030735  -0.029160   0.622789
 Mulliken charges:
               1
     1  C   -0.354083
     2  C   -0.054610
     3  C   -0.079090
     4  C   -0.344713
     5  H    0.109043
     6  H    0.116441
     7  H    0.113713
     8  H    0.077428
     9  H    0.080910
    10  H    0.133912
    11  H    0.103820
    12  H    0.097229
 Sum of Mulliken charges =  -0.00000
 Mulliken charges with hydrogens summed into heavy atoms:
               1
     1  C   -0.014887
     2  C    0.022818
     3  C    0.001821
     4  C   -0.009752
 Electronic spatial extent (au):  <R**2>=            350.9021
 Charge=             -0.0000 electrons
 Dipole moment (field-independent basis, Debye):
    X=             -0.0958    Y=             -0.2343    Z=             -0.1147  Tot=              0.2780
 Quadrupole moment (field-independent basis, Debye-Ang):
   XX=            -24.9607   YY=            -25.7956   ZZ=            -27.5308
   XY=              0.0067   XZ=             -0.1628   YZ=              0.0091
 Traceless Quadrupole moment (field-independent basis, Debye-Ang):
   XX=              1.1350   YY=              0.3001   ZZ=             -1.4351
   XY=              0.0067   XZ=             -0.1628   YZ=              0.0091
 Octapole moment (field-independent basis, Debye-Ang**2):
  XXX=             -0.2496  YYY=              1.5377  ZZZ=             -0.3599  XYY=              0.1762
  XXY=              1.3491  XXZ=             -0.4313  XZZ=             -0.7690  YZZ=             -1.8255
  YYZ=              0.1842  XYZ=             -0.1855
 Hexadecapole moment (field-independent basis, Debye-Ang**3):
 XXXX=           -309.8222 YYYY=           -119.4937 ZZZZ=            -42.2792 XXXY=              1.8601
 XXXZ=             -1.9571 YYYX=             -0.2297 YYYZ=              0.2377 ZZZX=             -0.2535
 ZZZY=              0.0737 XXYY=            -73.3471 XXZZ=            -58.2913 YYZZ=            -28.3538
 XXYZ=             -0.3461 YYXZ=              0.3758 ZZXY=             -0.3958
 N-N= 1.174690615774D+02 E-N=-5.979057450538D+02  KE= 1.556005558034D+02
 Calling FoFJK, ICntrl=      2127 FMM=F ISym2X=0 I1Cent= 0 IOpClX= 0 NMat=1 NMatS=1 NMatT=0.
 ***** Axes restored to original set *****
 -------------------------------------------------------------------
 Center     Atomic                   Forces (Hartrees/Bohr)
 Number     Number              X              Y              Z
 -------------------------------------------------------------------
      1        6          -0.000105963    0.000283856   -0.007589277
      2        6          -0.000385781    0.000104234   -0.001055323
      3        6           0.002964401   -0.000121096   -0.012154846
      4        6           0.023416902    0.005656336   -0.066865827
      5        1          -0.000045882   -0.000166300   -0.000980785
      6        1          -0.003270219   -0.003055126    0.004845651
      7        1           0.003320176    0.002853437    0.004711490
      8        1           0.000022902    0.000090185    0.000987180
      9        1          -0.000176653   -0.000288294    0.000056822
     10        1          -0.039844708    0.021100006    0.046440970
     11        1          -0.007395450   -0.003417681   -0.004763908
     12        1           0.021500273   -0.023039558    0.036367853
 -------------------------------------------------------------------
 Cartesian Forces:  Max     0.066865827 RMS     0.018217971

 GradGradGradGradGradGradGradGradGradGradGradGradGradGradGradGradGradGrad
 Berny optimization.
 FormGI is forming the generalized inverse of G from B-inverse, IUseBI=4.
 Internal  Forces:  Max     0.063930447 RMS     0.012478028
 Search for a local minimum.
 Step number   1 out of a maximum of   55
 All quantities printed in internal units (Hartrees-Bohrs-Radians)
 Mixed Optimization -- RFO/linear search
 Second derivative matrix not updated -- first step.
 ITU=  0
     Eigenvalues ---    0.00614   0.00736   0.01550   0.01631   0.02919
     Eigenvalues ---    0.06424   0.06980   0.07256   0.07658   0.15999
     Eigenvalues ---    0.15999   0.16000   0.16000   0.16000   0.16000
     Eigenvalues ---    0.16000   0.16000   0.22000   0.22000   0.24972
     Eigenvalues ---    0.31200   0.32137   0.32827   0.32933   0.34451
     Eigenvalues ---    0.34836   0.34926   0.35081   0.44851   0.57836
 RFO step:  Lambda=-2.08873928D-02 EMin= 6.13743691D-03
 Linear search not attempted -- first point.
 Iteration  1 RMS(Cart)=  0.05009963 RMS(Int)=  0.00227967
 Iteration  2 RMS(Cart)=  0.00266171 RMS(Int)=  0.00075071
 Iteration  3 RMS(Cart)=  0.00000879 RMS(Int)=  0.00075064
 Iteration  4 RMS(Cart)=  0.00000001 RMS(Int)=  0.00075064
 Variable       Old X    -DE/DX   Delta X   Delta X   Delta X     New X
                                 (Linear)    (Quad)   (Total)
    R1        2.83893   0.00009   0.00000   0.00028   0.00028   2.83921
    R2        2.06575  -0.00017   0.00000  -0.00047  -0.00047   2.06528
    R3        2.05544   0.00656   0.00000   0.01764   0.01764   2.07307
    R4        2.09356  -0.00640   0.00000  -0.01832  -0.01832   2.07524
    R5        2.52695   0.00026   0.00000   0.00044   0.00044   2.52739
    R6        2.05941  -0.00009   0.00000  -0.00025  -0.00025   2.05917
    R7        2.85633   0.00067   0.00000   0.00202   0.00202   2.85835
    R8        2.05795  -0.00008   0.00000  -0.00022  -0.00022   2.05773
    R9        1.92150   0.06393   0.00000   0.13620   0.13620   2.05769
   R10        2.09169  -0.00877   0.00000  -0.02504  -0.02504   2.06665
   R11        2.25978  -0.04790   0.00000  -0.17700  -0.17700   2.08278
    A1        1.96193   0.00013   0.00000   0.00071   0.00067   1.96260
    A2        1.93006   0.00113   0.00000   0.00828   0.00826   1.93832
    A3        1.94585  -0.00115   0.00000  -0.00841  -0.00842   1.93743
    A4        1.87822   0.00021   0.00000   0.00496   0.00492   1.88314
    A5        1.88563  -0.00029   0.00000  -0.00518  -0.00521   1.88042
    A6        1.85772  -0.00003   0.00000  -0.00021  -0.00019   1.85753
    A7        2.20571   0.00029   0.00000   0.00123   0.00122   2.20693
    A8        2.01813  -0.00011   0.00000  -0.00037  -0.00038   2.01775
    A9        2.05929  -0.00018   0.00000  -0.00078  -0.00079   2.05850
   A10        2.20076  -0.00060   0.00000  -0.00244  -0.00249   2.19827
   A11        2.05367  -0.00004   0.00000  -0.00054  -0.00059   2.05309
   A12        2.02867   0.00064   0.00000   0.00320   0.00316   2.03182
   A13        1.84733   0.01563   0.00000   0.10007   0.09982   1.94716
   A14        1.93364   0.00119   0.00000   0.00278   0.00052   1.93416
   A15        2.04270  -0.01133   0.00000  -0.07353  -0.07368   1.96902
   A16        1.86836  -0.00215   0.00000   0.01209   0.00987   1.87823
   A17        1.88346  -0.00333   0.00000  -0.01450  -0.01285   1.87060
   A18        1.88053   0.00060   0.00000  -0.01874  -0.02073   1.85980
    D1       -0.01996   0.00091   0.00000   0.01238   0.01238  -0.00758
    D2        3.13249   0.00057   0.00000   0.00321   0.00321   3.13570
    D3       -2.11958  -0.00024   0.00000  -0.00019  -0.00021  -2.11980
    D4        1.03287  -0.00058   0.00000  -0.00937  -0.00939   1.02348
    D5        2.10041  -0.00020   0.00000   0.00006   0.00008   2.10050
    D6       -1.03032  -0.00055   0.00000  -0.00911  -0.00909  -1.03941
    D7        0.00486   0.00062   0.00000   0.01373   0.01372   0.01857
    D8       -3.12209  -0.00007   0.00000  -0.00506  -0.00505  -3.12713
    D9        3.13536   0.00097   0.00000   0.02310   0.02308  -3.12474
   D10        0.00842   0.00028   0.00000   0.00431   0.00432   0.01274
   D11        0.94351  -0.00268   0.00000  -0.03795  -0.03947   0.90405
   D12        2.96295   0.00410   0.00000   0.03354   0.03363   2.99658
   D13       -1.15530  -0.00313   0.00000  -0.04895  -0.04755  -1.20285
   D14       -2.21254  -0.00200   0.00000  -0.01943  -0.02093  -2.23348
   D15       -0.19311   0.00478   0.00000   0.05206   0.05216  -0.14094
   D16        1.97183  -0.00246   0.00000  -0.03043  -0.02901   1.94282
         Item               Value     Threshold  Converged?
 Maximum Force            0.063930     0.000450     NO 
 RMS     Force            0.012478     0.000300     NO 
 Maximum Displacement     0.187713     0.001800     NO 
 RMS     Displacement     0.050158     0.001200     NO 
 Predicted change in Energy=-1.125136D-02
 GradGradGradGradGradGradGradGradGradGradGradGradGradGradGradGradGradGrad

                          Input orientation:                          
 ---------------------------------------------------------------------
 Center     Atomic      Atomic             Coordinates (Angstroms)
 Number     Number       Type             X           Y           Z
 ---------------------------------------------------------------------
      1          6           0       -1.481984   -0.713986    0.011589
      2          6           0        0.000766   -0.954954   -0.015335
      3          6           0        0.957541   -0.020505   -0.026261
      4          6           0        0.738049    1.475643    0.009111
      5          1           0       -1.731639    0.349862    0.029833
      6          1           0       -1.941694   -1.183244    0.890181
      7          1           0       -1.968816   -1.156902   -0.867500
      8          1           0        0.307866   -2.000366   -0.028455
      9          1           0        1.992396   -0.357629   -0.060001
     10          1           0        0.084624    1.764959    0.830695
     11          1           0        1.686419    2.004675    0.138463
     12          1           0        0.286041    1.863352   -0.918321
 ---------------------------------------------------------------------
                    Distance matrix (angstroms):
                    1          2          3          4          5
     1  C    0.000000
     2  C    1.502444   0.000000
     3  C    2.536460   1.337435   0.000000
     4  C    3.118177   2.540076   1.512576   0.000000
     5  H    1.092901   2.169288   2.715144   2.714253   0.000000
     6  H    1.097024   2.155279   3.255364   3.876466   1.770518
     7  H    1.098170   2.155510   3.250023   3.876321   1.769689
     8  H    2.204526   1.089664   2.083730   3.502729   3.112322
     9  H    3.493341   2.079755   1.088906   2.222397   3.791708
    10  H    3.044728   2.849689   2.164310   1.088885   2.437763
    11  H    4.176840   3.409470   2.158646   1.093624   3.799122
    12  H    3.260876   2.973149   2.189885   1.102161   2.694565
                    6          7          8          9         10
     6  H    0.000000
     7  H    1.758088   0.000000
     8  H    2.563611   2.568795   0.000000
     9  H    4.130563   4.120934   2.353130   0.000000
    10  H    3.577905   3.954461   3.868546   2.989701   0.000000
    11  H    4.887854   4.936424   4.238941   2.390291   1.761363
    12  H    4.185120   3.769469   3.964928   2.929354   1.763323
                   11         12
    11  H    0.000000
    12  H    1.760063   0.000000
 Stoichiometry    C4H8
 Framework group  C1[X(C4H8)]
 Deg. of freedom    30
 Full point group                 C1      NOp   1
 Largest Abelian subgroup         C1      NOp   1
 Largest concise Abelian subgroup C1      NOp   1
                         Standard orientation:                         
 ---------------------------------------------------------------------
 Center     Atomic      Atomic             Coordinates (Angstroms)
 Number     Number       Type             X           Y           Z
 ---------------------------------------------------------------------
      1          6           0       -1.555641   -0.535234    0.001276
      2          6           0       -0.671299    0.679369   -0.002719
      3          6           0        0.666083    0.688513    0.004903
      4          6           0        1.562528   -0.529765   -0.003578
      5          1           0       -0.984711   -1.467149    0.003869
      6          1           0       -2.214505   -0.545985   -0.875790
      7          1           0       -2.211191   -0.541988    0.882290
      8          1           0       -1.188444    1.638461   -0.011209
      9          1           0        1.164475    1.656620    0.014479
     10          1           0        1.299768   -1.214391   -0.808510
     11          1           0        2.608407   -0.241799   -0.142231
     12          1           0        1.516173   -1.101075    0.937811
 ---------------------------------------------------------------------
 Rotational constants (GHZ):          15.7424466           5.2258448           4.1234361
 Standard basis: 6-31G(d,p) (6D, 7F)
 There are   100 symmetry adapted cartesian basis functions of A   symmetry.
 There are   100 symmetry adapted basis functions of A   symmetry.
   100 basis functions,   168 primitive gaussians,   100 cartesian basis functions
    16 alpha electrons       16 beta electrons
       nuclear repulsion energy       117.5045666730 Hartrees.
 NAtoms=   12 NActive=   12 NUniq=   12 SFac= 1.00D+00 NAtFMM=   60 NAOKFM=F Big=F
 Integral buffers will be    131072 words long.
 Raffenetti 2 integral format.
 Two-electron integral symmetry is turned on.
 One-electron integrals computed using PRISM.
 NBasis=   100 RedAO= T EigKep=  3.51D-03  NBF=   100
 NBsUse=   100 1.00D-06 EigRej= -1.00D+00 NBFU=   100
 Initial guess from the checkpoint file:  "cis-CC=CC.chk"
 B after Tr=    -0.000000   -0.000000    0.000000
         Rot=    0.999924    0.012316    0.000574    0.000070 Ang=   1.41 deg.
 ExpMin= 1.61D-01 ExpMax= 3.05D+03 ExpMxC= 4.57D+02 IAcc=3 IRadAn=         7 AccDes= 0.00D+00
 Harris functional with IExCor=  402 and IRadAn=       7 diagonalized for initial guess.
 HarFok:  IExCor=  402 AccDes= 0.00D+00 IRadAn=         7 IDoV= 1 UseB2=F ITyADJ=14
 ICtDFT=  3500011 ScaDFX=  1.000000  1.000000  1.000000  1.000000
 FoFCou: FMM=F IPFlag=           0 FMFlag=      100000 FMFlg1=           0
         NFxFlg=           0 DoJE=T BraDBF=F KetDBF=T FulRan=T
         wScrn=  0.000000 ICntrl=       500 IOpCl=  0 I1Cent=   200000004 NGrid=           0
         NMat0=    1 NMatS0=      1 NMatT0=    0 NMatD0=    1 NMtDS0=    0 NMtDT0=    0
 Petite list used in FoFCou.
 Keep R1 ints in memory in canonical form, NReq=20199543.
 Requested convergence on RMS density matrix=1.00D-08 within 128 cycles.
 Requested convergence on MAX density matrix=1.00D-06.
 Requested convergence on             energy=1.00D-06.
 No special actions if energy rises.
 Integral accuracy reduced to 1.0D-05 until final iterations.
 Initial convergence to 1.0D-05 achieved.  Increase integral accuracy.
 SCF Done:  E(RB3LYP) =  -157.234585487     A.U. after   11 cycles
            NFock= 11  Conv=0.36D-08     -V/T= 2.0104
 Calling FoFJK, ICntrl=      2127 FMM=F ISym2X=0 I1Cent= 0 IOpClX= 0 NMat=1 NMatS=1 NMatT=0.
 ***** Axes restored to original set *****
 -------------------------------------------------------------------
 Center     Atomic                   Forces (Hartrees/Bohr)
 Number     Number              X              Y              Z
 -------------------------------------------------------------------
      1        6           0.000093559   -0.000047702    0.000065491
      2        6           0.000162644    0.000080643   -0.000079324
      3        6          -0.000902384    0.000528090   -0.000704483
      4        6           0.002709745   -0.000247238   -0.005197131
      5        1           0.000036725   -0.000007308   -0.000030801
      6        1          -0.000281929   -0.000186095    0.000270111
      7        1           0.000283254    0.000137629    0.000230076
      8        1          -0.000057954   -0.000090540   -0.000445756
      9        1          -0.000095413    0.000348462    0.000041644
     10        1          -0.002682395    0.001867380    0.002921697
     11        1          -0.000157682   -0.000047486    0.000707819
     12        1           0.000891830   -0.002335836    0.002220656
 -------------------------------------------------------------------
 Cartesian Forces:  Max     0.005197131 RMS     0.001371047

 GradGradGradGradGradGradGradGradGradGradGradGradGradGradGradGradGradGrad
 Berny optimization.
 Using GEDIIS/GDIIS optimizer.
 FormGI is forming the generalized inverse of G from B-inverse, IUseBI=4.
 Internal  Forces:  Max     0.004310356 RMS     0.000930693
 Search for a local minimum.
 Step number   2 out of a maximum of   55
 All quantities printed in internal units (Hartrees-Bohrs-Radians)
 Mixed Optimization -- En-DIIS/RFO-DIIS
 Update second derivatives using D2CorX and points    1    2
 DE= -1.12D-02 DEPred=-1.13D-02 R= 9.98D-01
 TightC=F SS=  1.41D+00  RLast= 2.78D-01 DXNew= 5.0454D-01 8.3518D-01
 Trust test= 9.98D-01 RLast= 2.78D-01 DXMaxT set to 5.05D-01
 ITU=  1  0
 Use linear search instead of GDIIS.
     Eigenvalues ---    0.00614   0.00736   0.01552   0.01632   0.02925
     Eigenvalues ---    0.06907   0.06991   0.07243   0.07281   0.15816
     Eigenvalues ---    0.16000   0.16000   0.16000   0.16000   0.16000
     Eigenvalues ---    0.16000   0.16101   0.21994   0.22000   0.25190
     Eigenvalues ---    0.31210   0.32138   0.32826   0.32973   0.34451
     Eigenvalues ---    0.34836   0.34926   0.35076   0.43769   0.57836
 RFO step:  Lambda=-1.07439610D-04 EMin= 6.13747706D-03
 Quartic linear search produced a step of  0.07039.
 Iteration  1 RMS(Cart)=  0.02018720 RMS(Int)=  0.00028539
 Iteration  2 RMS(Cart)=  0.00029466 RMS(Int)=  0.00005635
 Iteration  3 RMS(Cart)=  0.00000007 RMS(Int)=  0.00005635
 Variable       Old X    -DE/DX   Delta X   Delta X   Delta X     New X
                                 (Linear)    (Quad)   (Total)
    R1        2.83921  -0.00014   0.00002  -0.00048  -0.00046   2.83875
    R2        2.06528  -0.00002  -0.00003  -0.00002  -0.00005   2.06523
    R3        2.07307   0.00041   0.00124   0.00001   0.00125   2.07433
    R4        2.07524  -0.00037  -0.00129   0.00011  -0.00118   2.07406
    R5        2.52739  -0.00009   0.00003  -0.00020  -0.00017   2.52722
    R6        2.05917   0.00008  -0.00002   0.00025   0.00023   2.05940
    R7        2.85835  -0.00085   0.00014  -0.00306  -0.00292   2.85544
    R8        2.05773  -0.00020  -0.00002  -0.00060  -0.00061   2.05712
    R9        2.05769   0.00431   0.00959   0.00080   0.01039   2.06808
   R10        2.06665  -0.00008  -0.00176   0.00154  -0.00023   2.06642
   R11        2.08278  -0.00306  -0.01246  -0.00015  -0.01261   2.07017
    A1        1.96260  -0.00004   0.00005  -0.00035  -0.00031   1.96230
    A2        1.93832   0.00023   0.00058   0.00115   0.00173   1.94005
    A3        1.93743  -0.00024  -0.00059  -0.00119  -0.00178   1.93564
    A4        1.88314  -0.00001   0.00035   0.00003   0.00037   1.88351
    A5        1.88042   0.00006  -0.00037   0.00034  -0.00003   1.88038
    A6        1.85753   0.00000  -0.00001   0.00005   0.00004   1.85757
    A7        2.20693   0.00007   0.00009   0.00025   0.00034   2.20727
    A8        2.01775  -0.00011  -0.00003  -0.00065  -0.00068   2.01707
    A9        2.05850   0.00004  -0.00006   0.00040   0.00034   2.05884
   A10        2.19827   0.00064  -0.00018   0.00331   0.00312   2.20138
   A11        2.05309  -0.00001  -0.00004   0.00058   0.00052   2.05361
   A12        2.03182  -0.00063   0.00022  -0.00385  -0.00365   2.02818
   A13        1.94716   0.00134   0.00703   0.00072   0.00772   1.95488
   A14        1.93416   0.00030   0.00004   0.00293   0.00280   1.93695
   A15        1.96902  -0.00214  -0.00519  -0.00913  -0.01431   1.95471
   A16        1.87823  -0.00057   0.00069  -0.00326  -0.00275   1.87548
   A17        1.87060   0.00008  -0.00090  -0.00042  -0.00120   1.86940
   A18        1.85980   0.00102  -0.00146   0.00962   0.00803   1.86784
    D1       -0.00758   0.00005   0.00087  -0.00343  -0.00256  -0.01014
    D2        3.13570   0.00006   0.00023  -0.00139  -0.00116   3.13453
    D3       -2.11980  -0.00006  -0.00002  -0.00404  -0.00406  -2.12386
    D4        1.02348  -0.00006  -0.00066  -0.00200  -0.00266   1.02082
    D5        2.10050  -0.00006   0.00001  -0.00408  -0.00408   2.09642
    D6       -1.03941  -0.00006  -0.00064  -0.00204  -0.00268  -1.04209
    D7        0.01857  -0.00048   0.00097  -0.02149  -0.02053  -0.00195
    D8       -3.12713  -0.00037  -0.00036  -0.01020  -0.01055  -3.13768
    D9       -3.12474  -0.00049   0.00162  -0.02357  -0.02196   3.13649
   D10        0.01274  -0.00038   0.00030  -0.01229  -0.01197   0.00077
   D11        0.90405  -0.00039  -0.00278  -0.02302  -0.02592   0.87813
   D12        2.99658  -0.00002   0.00237  -0.02469  -0.02231   2.97427
   D13       -1.20285   0.00005  -0.00335  -0.01651  -0.01976  -1.22261
   D14       -2.23348  -0.00050  -0.00147  -0.03419  -0.03578  -2.26926
   D15       -0.14094  -0.00013   0.00367  -0.03586  -0.03217  -0.17311
   D16        1.94282  -0.00006  -0.00204  -0.02769  -0.02962   1.91319
         Item               Value     Threshold  Converged?
 Maximum Force            0.004310     0.000450     NO 
 RMS     Force            0.000931     0.000300     NO 
 Maximum Displacement     0.059642     0.001800     NO 
 RMS     Displacement     0.020191     0.001200     NO 
 Predicted change in Energy=-1.052723D-04
 GradGradGradGradGradGradGradGradGradGradGradGradGradGradGradGradGradGrad

                          Input orientation:                          
 ---------------------------------------------------------------------
 Center     Atomic      Atomic             Coordinates (Angstroms)
 Number     Number       Type             X           Y           Z
 ---------------------------------------------------------------------
      1          6           0       -1.482413   -0.714762    0.020384
      2          6           0        0.000103   -0.953971   -0.018802
      3          6           0        0.956239   -0.018948   -0.024747
      4          6           0        0.740341    1.476295    0.004485
      5          1           0       -1.732471    0.348545    0.055389
      6          1           0       -1.938722   -1.197918    0.894032
      7          1           0       -1.971911   -1.144476   -0.862990
      8          1           0        0.307302   -1.999167   -0.047615
      9          1           0        1.991207   -0.354637   -0.058867
     10          1           0        0.057940    1.776507    0.805653
     11          1           0        1.684352    2.005158    0.162279
     12          1           0        0.317603    1.848277   -0.935202
 ---------------------------------------------------------------------
                    Distance matrix (angstroms):
                    1          2          3          4          5
     1  C    0.000000
     2  C    1.502202   0.000000
     3  C    2.536379   1.337348   0.000000
     4  C    3.121157   2.540608   1.511032   0.000000
     5  H    1.092875   2.168840   2.714892   2.718311   0.000000
     6  H    1.097688   2.156808   3.258055   3.888456   1.771273
     7  H    1.097548   2.153552   3.247080   3.870047   1.769142
     8  H    2.203951   1.089788   2.083965   3.502724   3.111758
     9  H    3.493137   2.079736   1.088582   2.218331   3.791214
    10  H    3.032450   2.852819   2.172593   1.094381   2.409885
    11  H    4.176901   3.409682   2.159197   1.093504   3.798746
    12  H    3.274503   2.965330   2.173318   1.095486   2.726402
                    6          7          8          9         10
     6  H    0.000000
     7  H    1.758148   0.000000
     8  H    2.563849   2.567128   0.000000
     9  H    4.130797   4.120287   2.353751   0.000000
    10  H    3.583528   3.928970   3.878912   3.004445   0.000000
    11  H    4.890994   4.933521   4.239687   2.389916   1.763924
    12  H    4.209085   3.768774   3.948511   2.902024   1.761577
                   11         12
    11  H    0.000000
    12  H    1.759852   0.000000
 Stoichiometry    C4H8
 Framework group  C1[X(C4H8)]
 Deg. of freedom    30
 Full point group                 C1      NOp   1
 Largest Abelian subgroup         C1      NOp   1
 Largest concise Abelian subgroup C1      NOp   1
                         Standard orientation:                         
 ---------------------------------------------------------------------
 Center     Atomic      Atomic             Coordinates (Angstroms)
 Number     Number       Type             X           Y           Z
 ---------------------------------------------------------------------
      1          6           0       -1.557017   -0.534222   -0.000270
      2          6           0       -0.671017    0.678879   -0.000369
      3          6           0        0.666309    0.686449   -0.001426
      4          6           0        1.564136   -0.528921   -0.000358
      5          1           0       -0.987249   -1.466754   -0.011428
      6          1           0       -2.225628   -0.536564   -0.870829
      7          1           0       -2.202730   -0.547487    0.887136
      8          1           0       -1.187456    1.638520    0.003545
      9          1           0        1.166247    1.653432    0.002428
     10          1           0        1.286020   -1.244892   -0.779914
     11          1           0        2.606395   -0.245878   -0.171630
     12          1           0        1.529932   -1.063483    0.955238
 ---------------------------------------------------------------------
 Rotational constants (GHZ):          15.7865931           5.2192846           4.1220956
 Standard basis: 6-31G(d,p) (6D, 7F)
 There are   100 symmetry adapted cartesian basis functions of A   symmetry.
 There are   100 symmetry adapted basis functions of A   symmetry.
   100 basis functions,   168 primitive gaussians,   100 cartesian basis functions
    16 alpha electrons       16 beta electrons
       nuclear repulsion energy       117.5256503870 Hartrees.
 NAtoms=   12 NActive=   12 NUniq=   12 SFac= 1.00D+00 NAtFMM=   60 NAOKFM=F Big=F
 Integral buffers will be    131072 words long.
 Raffenetti 2 integral format.
 Two-electron integral symmetry is turned on.
 One-electron integrals computed using PRISM.
 NBasis=   100 RedAO= T EigKep=  3.50D-03  NBF=   100
 NBsUse=   100 1.00D-06 EigRej= -1.00D+00 NBFU=   100
 Initial guess from the checkpoint file:  "cis-CC=CC.chk"
 B after Tr=     0.000000    0.000000   -0.000000
         Rot=    0.999998    0.002056   -0.000669    0.000172 Ang=   0.25 deg.
 ExpMin= 1.61D-01 ExpMax= 3.05D+03 ExpMxC= 4.57D+02 IAcc=3 IRadAn=         7 AccDes= 0.00D+00
 Harris functional with IExCor=  402 and IRadAn=       7 diagonalized for initial guess.
 HarFok:  IExCor=  402 AccDes= 0.00D+00 IRadAn=         7 IDoV= 1 UseB2=F ITyADJ=14
 ICtDFT=  3500011 ScaDFX=  1.000000  1.000000  1.000000  1.000000
 FoFCou: FMM=F IPFlag=           0 FMFlag=      100000 FMFlg1=           0
         NFxFlg=           0 DoJE=T BraDBF=F KetDBF=T FulRan=T
         wScrn=  0.000000 ICntrl=       500 IOpCl=  0 I1Cent=   200000004 NGrid=           0
         NMat0=    1 NMatS0=      1 NMatT0=    0 NMatD0=    1 NMtDS0=    0 NMtDT0=    0
 Petite list used in FoFCou.
 Keep R1 ints in memory in canonical form, NReq=20199543.
 Requested convergence on RMS density matrix=1.00D-08 within 128 cycles.
 Requested convergence on MAX density matrix=1.00D-06.
 Requested convergence on             energy=1.00D-06.
 No special actions if energy rises.
 Integral accuracy reduced to 1.0D-05 until final iterations.
 Initial convergence to 1.0D-05 achieved.  Increase integral accuracy.
 SCF Done:  E(RB3LYP) =  -157.234707954     A.U. after    9 cycles
            NFock=  9  Conv=0.55D-08     -V/T= 2.0104
 Calling FoFJK, ICntrl=      2127 FMM=F ISym2X=0 I1Cent= 0 IOpClX= 0 NMat=1 NMatS=1 NMatT=0.
 ***** Axes restored to original set *****
 -------------------------------------------------------------------
 Center     Atomic                   Forces (Hartrees/Bohr)
 Number     Number              X              Y              Z
 -------------------------------------------------------------------
      1        6          -0.000021070   -0.000021020    0.000009841
      2        6           0.000161868   -0.000015718    0.000298464
      3        6          -0.000315079   -0.000017472   -0.000205757
      4        6           0.001216112   -0.000529082    0.000684423
      5        1          -0.000039236   -0.000016552    0.000006531
      6        1           0.000085834   -0.000017342   -0.000050288
      7        1          -0.000110166    0.000020173   -0.000057317
      8        1           0.000016298    0.000020024    0.000090571
      9        1           0.000092159   -0.000014163   -0.000382352
     10        1          -0.000623907    0.000431313    0.000364543
     11        1          -0.000122081   -0.000056615    0.000313918
     12        1          -0.000340733    0.000216453   -0.001072577
 -------------------------------------------------------------------
 Cartesian Forces:  Max     0.001216112 RMS     0.000365740

 GradGradGradGradGradGradGradGradGradGradGradGradGradGradGradGradGradGrad
 Berny optimization.
 Using GEDIIS/GDIIS optimizer.
 FormGI is forming the generalized inverse of G from B-inverse, IUseBI=4.
 Internal  Forces:  Max     0.001125066 RMS     0.000246739
 Search for a local minimum.
 Step number   3 out of a maximum of   55
 All quantities printed in internal units (Hartrees-Bohrs-Radians)
 Mixed Optimization -- En-DIIS/RFO-DIIS
 Swapping is turned off.
 Update second derivatives using D2CorX and points    1    2    3
 DE= -1.22D-04 DEPred=-1.05D-04 R= 1.16D+00
 TightC=F SS=  1.41D+00  RLast= 8.14D-02 DXNew= 8.4853D-01 2.4412D-01
 Trust test= 1.16D+00 RLast= 8.14D-02 DXMaxT set to 5.05D-01
 ITU=  1  1  0
     Eigenvalues ---    0.00439   0.00735   0.01553   0.01633   0.03032
     Eigenvalues ---    0.06942   0.07006   0.07245   0.07264   0.14837
     Eigenvalues ---    0.15993   0.16000   0.16000   0.16000   0.16000
     Eigenvalues ---    0.16048   0.16187   0.21785   0.22010   0.30393
     Eigenvalues ---    0.31739   0.32221   0.32964   0.33113   0.34451
     Eigenvalues ---    0.34839   0.34961   0.35288   0.43046   0.57835
 En-DIIS/RFO-DIIS/Sim-DIIS IScMMF=       -3 using points:     3    2
 RFO step:  Lambda=-7.32376052D-05.
 DidBck=F Rises=F RFO-DIIS coefs:    2.31583   -1.31583
 Iteration  1 RMS(Cart)=  0.02416232 RMS(Int)=  0.00047409
 Iteration  2 RMS(Cart)=  0.00049313 RMS(Int)=  0.00001117
 Iteration  3 RMS(Cart)=  0.00000017 RMS(Int)=  0.00001117
 Variable       Old X    -DE/DX   Delta X   Delta X   Delta X     New X
                                 (Linear)    (Quad)   (Total)
    R1        2.83875   0.00008  -0.00060   0.00075   0.00015   2.83890
    R2        2.06523  -0.00001  -0.00007   0.00002  -0.00004   2.06519
    R3        2.07433  -0.00007   0.00165  -0.00147   0.00018   2.07451
    R4        2.07406   0.00009  -0.00155   0.00147  -0.00007   2.07399
    R5        2.52722  -0.00004  -0.00022   0.00008  -0.00014   2.52708
    R6        2.05940  -0.00002   0.00031  -0.00030   0.00001   2.05941
    R7        2.85544   0.00005  -0.00384   0.00317  -0.00067   2.85476
    R8        2.05712   0.00010  -0.00081   0.00098   0.00018   2.05730
    R9        2.06808   0.00077   0.01367  -0.00814   0.00552   2.07360
   R10        2.06642  -0.00009  -0.00030  -0.00015  -0.00045   2.06597
   R11        2.07017   0.00113  -0.01660   0.01787   0.00127   2.07144
    A1        1.96230   0.00006  -0.00040   0.00079   0.00039   1.96269
    A2        1.94005  -0.00013   0.00228  -0.00289  -0.00061   1.93945
    A3        1.93564   0.00013  -0.00234   0.00288   0.00053   1.93618
    A4        1.88351   0.00002   0.00049  -0.00036   0.00012   1.88363
    A5        1.88038  -0.00007  -0.00005  -0.00031  -0.00036   1.88002
    A6        1.85757  -0.00001   0.00005  -0.00016  -0.00011   1.85746
    A7        2.20727   0.00015   0.00044   0.00051   0.00096   2.20822
    A8        2.01707  -0.00006  -0.00090   0.00042  -0.00047   2.01660
    A9        2.05884  -0.00010   0.00045  -0.00093  -0.00048   2.05836
   A10        2.20138   0.00031   0.00410  -0.00146   0.00262   2.20400
   A11        2.05361  -0.00014   0.00069  -0.00128  -0.00061   2.05300
   A12        2.02818  -0.00017  -0.00480   0.00278  -0.00204   2.02614
   A13        1.95488   0.00039   0.01016  -0.00465   0.00551   1.96039
   A14        1.93695   0.00000   0.00368  -0.00267   0.00100   1.93796
   A15        1.95471  -0.00034  -0.01883   0.01163  -0.00718   1.94753
   A16        1.87548  -0.00017  -0.00361   0.00187  -0.00177   1.87371
   A17        1.86940  -0.00007  -0.00158   0.00040  -0.00115   1.86825
   A18        1.86784   0.00017   0.01057  -0.00693   0.00365   1.87148
    D1       -0.01014  -0.00003  -0.00337  -0.00045  -0.00382  -0.01396
    D2        3.13453  -0.00005  -0.00153  -0.00348  -0.00501   3.12952
    D3       -2.12386  -0.00001  -0.00534   0.00152  -0.00382  -2.12767
    D4        1.02082  -0.00003  -0.00350  -0.00151  -0.00501   1.01580
    D5        2.09642   0.00001  -0.00536   0.00173  -0.00363   2.09279
    D6       -1.04209  -0.00002  -0.00353  -0.00130  -0.00483  -1.04692
    D7       -0.00195   0.00001  -0.02701   0.02052  -0.00650  -0.00846
    D8       -3.13768   0.00002  -0.01388   0.01139  -0.00248  -3.14016
    D9        3.13649   0.00003  -0.02889   0.02361  -0.00528   3.13121
   D10        0.00077   0.00004  -0.01576   0.01449  -0.00126  -0.00050
   D11        0.87813  -0.00024  -0.03411  -0.01419  -0.04832   0.82981
   D12        2.97427  -0.00018  -0.02935  -0.01679  -0.04614   2.92813
   D13       -1.22261  -0.00019  -0.02601  -0.01963  -0.04563  -1.26824
   D14       -2.26926  -0.00025  -0.04708  -0.00519  -0.05228  -2.32154
   D15       -0.17311  -0.00019  -0.04233  -0.00780  -0.05010  -0.22321
   D16        1.91319  -0.00020  -0.03898  -0.01063  -0.04960   1.86360
         Item               Value     Threshold  Converged?
 Maximum Force            0.001125     0.000450     NO 
 RMS     Force            0.000247     0.000300     YES
 Maximum Displacement     0.081769     0.001800     NO 
 RMS     Displacement     0.024177     0.001200     NO 
 Predicted change in Energy=-3.714811D-05
 GradGradGradGradGradGradGradGradGradGradGradGradGradGradGradGradGradGrad

                          Input orientation:                          
 ---------------------------------------------------------------------
 Center     Atomic      Atomic             Coordinates (Angstroms)
 Number     Number       Type             X           Y           Z
 ---------------------------------------------------------------------
      1          6           0       -1.483259   -0.716346    0.029516
      2          6           0       -0.000675   -0.953327   -0.021798
      3          6           0        0.954988   -0.017942   -0.029784
      4          6           0        0.742499    1.477399    0.000959
      5          1           0       -1.734764    0.346161    0.075900
      6          1           0       -1.932544   -1.208288    0.902023
      7          1           0       -1.978689   -1.138580   -0.854110
      8          1           0        0.307235   -1.998114   -0.057265
      9          1           0        1.989766   -0.353734   -0.070907
     10          1           0        0.024427    1.780525    0.773333
     11          1           0        1.679713    2.002898    0.202726
     12          1           0        0.360873    1.850252   -0.956592
 ---------------------------------------------------------------------
                    Distance matrix (angstroms):
                    1          2          3          4          5
     1  C    0.000000
     2  C    1.502281   0.000000
     3  C    2.536993   1.337273   0.000000
     4  C    3.125274   2.541899   1.510676   0.000000
     5  H    1.092854   2.169165   2.716340   2.724362   0.000000
     6  H    1.097785   2.156517   3.259298   3.896240   1.771414
     7  H    1.097509   2.153973   3.246814   3.870317   1.768862
     8  H    2.203708   1.089793   2.083608   3.503147   3.111772
     9  H    3.493348   2.079370   1.088676   2.216730   3.792563
    10  H    3.010108   2.847246   2.178400   1.097304   2.374566
    11  H    4.174768   3.407841   2.159417   1.093265   3.797304
    12  H    3.310689   2.977349   2.168431   1.096158   2.778493
                    6          7          8          9         10
     6  H    0.000000
     7  H    1.758122   0.000000
     8  H    2.561380   2.568893   0.000000
     9  H    4.130541   4.120440   2.352676   0.000000
    10  H    3.574814   3.896436   3.879174   3.021649   0.000000
    11  H    4.883557   4.936567   4.237853   2.392640   1.764940
    12  H    4.250750   3.796994   3.952416   2.880154   1.763717
                   11         12
    11  H    0.000000
    12  H    1.762572   0.000000
 Stoichiometry    C4H8
 Framework group  C1[X(C4H8)]
 Deg. of freedom    30
 Full point group                 C1      NOp   1
 Largest Abelian subgroup         C1      NOp   1
 Largest concise Abelian subgroup C1      NOp   1
                         Standard orientation:                         
 ---------------------------------------------------------------------
 Center     Atomic      Atomic             Coordinates (Angstroms)
 Number     Number       Type             X           Y           Z
 ---------------------------------------------------------------------
      1          6           0       -1.558888   -0.533675   -0.000759
      2          6           0       -0.671098    0.678215    0.000537
      3          6           0        0.666151    0.685148   -0.003419
      4          6           0        1.566381   -0.527994    0.000262
      5          1           0       -0.990911   -1.467151   -0.019578
      6          1           0       -2.231868   -0.530130   -0.868063
      7          1           0       -2.200291   -0.550868    0.889653
      8          1           0       -1.186610    1.638347    0.007043
      9          1           0        1.166013    1.652280   -0.000385
     10          1           0        1.262302   -1.274884   -0.743892
     11          1           0        2.600438   -0.250022   -0.220385
     12          1           0        1.565652   -1.027738    0.975874
 ---------------------------------------------------------------------
 Rotational constants (GHZ):          15.8113648           5.2086102           4.1173957
 Standard basis: 6-31G(d,p) (6D, 7F)
 There are   100 symmetry adapted cartesian basis functions of A   symmetry.
 There are   100 symmetry adapted basis functions of A   symmetry.
   100 basis functions,   168 primitive gaussians,   100 cartesian basis functions
    16 alpha electrons       16 beta electrons
       nuclear repulsion energy       117.4952420434 Hartrees.
 NAtoms=   12 NActive=   12 NUniq=   12 SFac= 1.00D+00 NAtFMM=   60 NAOKFM=F Big=F
 Integral buffers will be    131072 words long.
 Raffenetti 2 integral format.
 Two-electron integral symmetry is turned on.
 One-electron integrals computed using PRISM.
 NBasis=   100 RedAO= T EigKep=  3.49D-03  NBF=   100
 NBsUse=   100 1.00D-06 EigRej= -1.00D+00 NBFU=   100
 Initial guess from the checkpoint file:  "cis-CC=CC.chk"
 B after Tr=    -0.000000   -0.000000    0.000000
         Rot=    0.999997    0.002160   -0.000989    0.000003 Ang=   0.27 deg.
 ExpMin= 1.61D-01 ExpMax= 3.05D+03 ExpMxC= 4.57D+02 IAcc=3 IRadAn=         7 AccDes= 0.00D+00
 Harris functional with IExCor=  402 and IRadAn=       7 diagonalized for initial guess.
 HarFok:  IExCor=  402 AccDes= 0.00D+00 IRadAn=         7 IDoV= 1 UseB2=F ITyADJ=14
 ICtDFT=  3500011 ScaDFX=  1.000000  1.000000  1.000000  1.000000
 FoFCou: FMM=F IPFlag=           0 FMFlag=      100000 FMFlg1=           0
         NFxFlg=           0 DoJE=T BraDBF=F KetDBF=T FulRan=T
         wScrn=  0.000000 ICntrl=       500 IOpCl=  0 I1Cent=   200000004 NGrid=           0
         NMat0=    1 NMatS0=      1 NMatT0=    0 NMatD0=    1 NMtDS0=    0 NMtDT0=    0
 Petite list used in FoFCou.
 Keep R1 ints in memory in canonical form, NReq=20199543.
 Requested convergence on RMS density matrix=1.00D-08 within 128 cycles.
 Requested convergence on MAX density matrix=1.00D-06.
 Requested convergence on             energy=1.00D-06.
 No special actions if energy rises.
 Integral accuracy reduced to 1.0D-05 until final iterations.
 Initial convergence to 1.0D-05 achieved.  Increase integral accuracy.
 SCF Done:  E(RB3LYP) =  -157.234776762     A.U. after    9 cycles
            NFock=  9  Conv=0.34D-08     -V/T= 2.0104
 Calling FoFJK, ICntrl=      2127 FMM=F ISym2X=0 I1Cent= 0 IOpClX= 0 NMat=1 NMatS=1 NMatT=0.
 ***** Axes restored to original set *****
 -------------------------------------------------------------------
 Center     Atomic                   Forces (Hartrees/Bohr)
 Number     Number              X              Y              Z
 -------------------------------------------------------------------
      1        6          -0.000042175   -0.000067244    0.000072629
      2        6          -0.000033853    0.000007167    0.000455155
      3        6          -0.000050822    0.000066287    0.000185570
      4        6          -0.000666159   -0.000158001    0.001576909
      5        1          -0.000033099   -0.000024691   -0.000004129
      6        1           0.000098948    0.000013893   -0.000114474
      7        1          -0.000087164    0.000007077   -0.000099345
      8        1           0.000025630    0.000025610    0.000141960
      9        1           0.000078605   -0.000030442   -0.000536810
     10        1           0.000530313   -0.000518267   -0.001018699
     11        1           0.000050961    0.000018563    0.000057084
     12        1           0.000128815    0.000660049   -0.000715850
 -------------------------------------------------------------------
 Cartesian Forces:  Max     0.001576909 RMS     0.000412791

 GradGradGradGradGradGradGradGradGradGradGradGradGradGradGradGradGradGrad
 Berny optimization.
 Using GEDIIS/GDIIS optimizer.
 FormGI is forming the generalized inverse of G from B-inverse, IUseBI=4.
 Internal  Forces:  Max     0.001207233 RMS     0.000269541
 Search for a local minimum.
 Step number   4 out of a maximum of   55
 All quantities printed in internal units (Hartrees-Bohrs-Radians)
 Mixed Optimization -- En-DIIS/RFO-DIIS
 Swapping is turned off.
 Update second derivatives using D2CorX and points    1    2    3    4
 DE= -6.88D-05 DEPred=-3.71D-05 R= 1.85D+00
 TightC=F SS=  1.41D+00  RLast= 1.21D-01 DXNew= 8.4853D-01 3.6238D-01
 Trust test= 1.85D+00 RLast= 1.21D-01 DXMaxT set to 5.05D-01
 ITU=  1  1  1  0
     Eigenvalues ---    0.00025   0.00735   0.01561   0.01637   0.03209
     Eigenvalues ---    0.07003   0.07078   0.07245   0.07261   0.15974
     Eigenvalues ---    0.15989   0.16000   0.16000   0.16000   0.16029
     Eigenvalues ---    0.16215   0.21238   0.21650   0.22779   0.28203
     Eigenvalues ---    0.31552   0.32181   0.32881   0.33078   0.34451
     Eigenvalues ---    0.34839   0.34965   0.35151   0.57766   0.94085
 En-DIIS/RFO-DIIS/Sim-DIIS IScMMF=       -3 using points:     4    3    2
 RFO step:  Lambda=-4.44166623D-04.
 DidBck=F Rises=F RFO-DIIS coefs:    3.00000   -1.59618   -0.40382
 Iteration  1 RMS(Cart)=  0.10439774 RMS(Int)=  0.05166143
 Iteration  2 RMS(Cart)=  0.06531281 RMS(Int)=  0.00351266
 Iteration  3 RMS(Cart)=  0.00365616 RMS(Int)=  0.00008674
 Iteration  4 RMS(Cart)=  0.00000888 RMS(Int)=  0.00008643
 Iteration  5 RMS(Cart)=  0.00000000 RMS(Int)=  0.00008643
 Variable       Old X    -DE/DX   Delta X   Delta X   Delta X     New X
                                 (Linear)    (Quad)   (Total)
    R1        2.83890   0.00005   0.00011   0.00059   0.00070   2.83960
    R2        2.06519  -0.00002  -0.00010  -0.00024  -0.00034   2.06486
    R3        2.07451  -0.00014   0.00087   0.00007   0.00094   2.07546
    R4        2.07399   0.00012  -0.00062   0.00020  -0.00042   2.07357
    R5        2.52708   0.00008  -0.00035  -0.00019  -0.00053   2.52655
    R6        2.05941  -0.00002   0.00011  -0.00002   0.00009   2.05950
    R7        2.85476  -0.00001  -0.00253  -0.00305  -0.00557   2.84919
    R8        2.05730   0.00010   0.00011   0.00095   0.00105   2.05835
    R9        2.07360  -0.00121   0.01524   0.01370   0.02894   2.10254
   R10        2.06597   0.00006  -0.00099  -0.00091  -0.00191   2.06407
   R11        2.07144   0.00081  -0.00256   0.00688   0.00432   2.07576
    A1        1.96269   0.00006   0.00065   0.00188   0.00253   1.96522
    A2        1.93945  -0.00010  -0.00052  -0.00252  -0.00303   1.93642
    A3        1.93618   0.00006   0.00035   0.00181   0.00216   1.93834
    A4        1.88363   0.00002   0.00040   0.00082   0.00122   1.88486
    A5        1.88002  -0.00006  -0.00073  -0.00177  -0.00250   1.87752
    A6        1.85746   0.00001  -0.00020  -0.00035  -0.00055   1.85690
    A7        2.20822   0.00023   0.00205   0.00517   0.00721   2.21543
    A8        2.01660  -0.00009  -0.00122  -0.00236  -0.00359   2.01300
    A9        2.05836  -0.00015  -0.00082  -0.00280  -0.00362   2.05474
   A10        2.20400   0.00019   0.00649   0.01062   0.01701   2.22101
   A11        2.05300  -0.00010  -0.00100  -0.00264  -0.00375   2.04925
   A12        2.02614  -0.00009  -0.00554  -0.00810  -0.01375   2.01239
   A13        1.96039  -0.00027   0.01414   0.01587   0.03002   1.99041
   A14        1.93796  -0.00009   0.00313   0.00237   0.00537   1.94333
   A15        1.94753   0.00053  -0.02014  -0.01918  -0.03916   1.90837
   A16        1.87371   0.00018  -0.00466  -0.00388  -0.00877   1.86494
   A17        1.86825  -0.00006  -0.00279  -0.00356  -0.00607   1.86218
   A18        1.87148  -0.00031   0.01054   0.00844   0.01899   1.89047
    D1       -0.01396  -0.00003  -0.00867  -0.01815  -0.02683  -0.04078
    D2        3.12952  -0.00003  -0.01050  -0.02109  -0.03159   3.09793
    D3       -2.12767  -0.00003  -0.00927  -0.01873  -0.02800  -2.15568
    D4        1.01580  -0.00003  -0.01110  -0.02167  -0.03277   0.98304
    D5        2.09279  -0.00002  -0.00891  -0.01784  -0.02675   2.06604
    D6       -1.04692  -0.00002  -0.01074  -0.02078  -0.03152  -1.07844
    D7       -0.00846   0.00010  -0.02130  -0.01876  -0.04010  -0.04855
    D8       -3.14016   0.00010  -0.00922  -0.00397  -0.01315   3.12987
    D9        3.13121   0.00009  -0.01943  -0.01576  -0.03523   3.09598
   D10       -0.00050   0.00010  -0.00736  -0.00097  -0.00828  -0.00878
   D11        0.82981  -0.00021  -0.10711  -0.22492  -0.33225   0.49755
   D12        2.92813  -0.00023  -0.10128  -0.21737  -0.31858   2.60955
   D13       -1.26824  -0.00033  -0.09925  -0.21788  -0.31705  -1.58530
   D14       -2.32154  -0.00022  -0.11902  -0.23948  -0.35867  -2.68021
   D15       -0.22321  -0.00024  -0.11319  -0.23193  -0.34500  -0.56821
   D16        1.86360  -0.00033  -0.11116  -0.23244  -0.34347   1.52013
         Item               Value     Threshold  Converged?
 Maximum Force            0.001207     0.000450     NO 
 RMS     Force            0.000270     0.000300     YES
 Maximum Displacement     0.591760     0.001800     NO 
 RMS     Displacement     0.164977     0.001200     NO 
 Predicted change in Energy=-3.656569D-04
 GradGradGradGradGradGradGradGradGradGradGradGradGradGradGradGradGradGrad

                          Input orientation:                          
 ---------------------------------------------------------------------
 Center     Atomic      Atomic             Coordinates (Angstroms)
 Number     Number       Type             X           Y           Z
 ---------------------------------------------------------------------
      1          6           0       -1.488351   -0.728264    0.093444
      2          6           0       -0.007937   -0.948074   -0.040811
      3          6           0        0.944556   -0.010158   -0.065560
      4          6           0        0.754582    1.484951   -0.023110
      5          1           0       -1.746833    0.326273    0.216242
      6          1           0       -1.890551   -1.278678    0.954552
      7          1           0       -2.023798   -1.100019   -0.789243
      8          1           0        0.303403   -1.989258   -0.123008
      9          1           0        1.976627   -0.345837   -0.158185
     10          1           0       -0.164062    1.810095    0.513821
     11          1           0        1.597912    1.979176    0.464292
     12          1           0        0.674019    1.870700   -1.048433
 ---------------------------------------------------------------------
                    Distance matrix (angstroms):
                    1          2          3          4          5
     1  C    0.000000
     2  C    1.502653   0.000000
     3  C    2.541652   1.336990   0.000000
     4  C    3.153196   2.549776   1.507728   0.000000
     5  H    1.092675   2.171128   2.726935   2.767111   0.000000
     6  H    1.098285   2.155059   3.269190   3.948442   1.772462
     7  H    1.097288   2.155674   3.243862   3.871488   1.766923
     8  H    2.201668   1.089841   2.081157   3.504807   3.111309
     9  H    3.495088   2.077249   1.089234   2.205317   3.802116
    10  H    2.893738   2.817710   2.208628   1.112618   2.189851
    11  H    4.122229   3.376785   2.159876   1.092257   3.739110
    12  H    3.568520   3.070156   2.139359   1.098445   3.137704
                    6          7          8          9         10
     6  H    0.000000
     7  H    1.757981   0.000000
     8  H    2.545485   2.578853   0.000000
     9  H    4.130792   4.119517   2.345581   0.000000
    10  H    3.565884   3.691254   3.880613   3.111621   0.000000
    11  H    4.798264   4.916256   4.215346   2.436511   1.770761
    12  H    4.528527   4.021264   3.986609   2.720729   1.773891
                   11         12
    11  H    0.000000
    12  H    1.775861   0.000000
 Stoichiometry    C4H8
 Framework group  C1[X(C4H8)]
 Deg. of freedom    30
 Full point group                 C1      NOp   1
 Largest Abelian subgroup         C1      NOp   1
 Largest concise Abelian subgroup C1      NOp   1
                         Standard orientation:                         
 ---------------------------------------------------------------------
 Center     Atomic      Atomic             Coordinates (Angstroms)
 Number     Number       Type             X           Y           Z
 ---------------------------------------------------------------------
      1          6           0       -1.572521   -0.529367   -0.003705
      2          6           0       -0.671408    0.673075    0.006044
      3          6           0        0.665402    0.675436   -0.015790
      4          6           0        1.580661   -0.522557    0.003086
      5          1           0       -1.018570   -1.468658   -0.073053
      6          1           0       -2.275057   -0.486753   -0.846828
      7          1           0       -2.183574   -0.571539    0.906722
      8          1           0       -1.179847    1.636720    0.031164
      9          1           0        1.165259    1.643203   -0.015590
     10          1           0        1.138530   -1.437953   -0.449120
     11          1           0        2.510143   -0.321239   -0.534090
     12          1           0        1.830314   -0.773302    1.042981
 ---------------------------------------------------------------------
 Rotational constants (GHZ):          15.9945545           5.1360508           4.0855832
 Standard basis: 6-31G(d,p) (6D, 7F)
 There are   100 symmetry adapted cartesian basis functions of A   symmetry.
 There are   100 symmetry adapted basis functions of A   symmetry.
   100 basis functions,   168 primitive gaussians,   100 cartesian basis functions
    16 alpha electrons       16 beta electrons
       nuclear repulsion energy       117.3197268717 Hartrees.
 NAtoms=   12 NActive=   12 NUniq=   12 SFac= 1.00D+00 NAtFMM=   60 NAOKFM=F Big=F
 Integral buffers will be    131072 words long.
 Raffenetti 2 integral format.
 Two-electron integral symmetry is turned on.
 One-electron integrals computed using PRISM.
 NBasis=   100 RedAO= T EigKep=  3.34D-03  NBF=   100
 NBsUse=   100 1.00D-06 EigRej= -1.00D+00 NBFU=   100
 Initial guess from the checkpoint file:  "cis-CC=CC.chk"
 B after Tr=    -0.000000    0.000000   -0.000000
         Rot=    0.999873    0.014351   -0.006880    0.000157 Ang=   1.82 deg.
 ExpMin= 1.61D-01 ExpMax= 3.05D+03 ExpMxC= 4.57D+02 IAcc=3 IRadAn=         7 AccDes= 0.00D+00
 Harris functional with IExCor=  402 and IRadAn=       7 diagonalized for initial guess.
 HarFok:  IExCor=  402 AccDes= 0.00D+00 IRadAn=         7 IDoV= 1 UseB2=F ITyADJ=14
 ICtDFT=  3500011 ScaDFX=  1.000000  1.000000  1.000000  1.000000
 FoFCou: FMM=F IPFlag=           0 FMFlag=      100000 FMFlg1=           0
         NFxFlg=           0 DoJE=T BraDBF=F KetDBF=T FulRan=T
         wScrn=  0.000000 ICntrl=       500 IOpCl=  0 I1Cent=   200000004 NGrid=           0
         NMat0=    1 NMatS0=      1 NMatT0=    0 NMatD0=    1 NMtDS0=    0 NMtDT0=    0
 Petite list used in FoFCou.
 Keep R1 ints in memory in canonical form, NReq=20199543.
 Requested convergence on RMS density matrix=1.00D-08 within 128 cycles.
 Requested convergence on MAX density matrix=1.00D-06.
 Requested convergence on             energy=1.00D-06.
 No special actions if energy rises.
 Integral accuracy reduced to 1.0D-05 until final iterations.
 Initial convergence to 1.0D-05 achieved.  Increase integral accuracy.
 SCF Done:  E(RB3LYP) =  -157.235121514     A.U. after   12 cycles
            NFock= 12  Conv=0.81D-08     -V/T= 2.0106
 Calling FoFJK, ICntrl=      2127 FMM=F ISym2X=0 I1Cent= 0 IOpClX= 0 NMat=1 NMatS=1 NMatT=0.
 ***** Axes restored to original set *****
 -------------------------------------------------------------------
 Center     Atomic                   Forces (Hartrees/Bohr)
 Number     Number              X              Y              Z
 -------------------------------------------------------------------
      1        6          -0.000277379   -0.000517964    0.000108793
      2        6          -0.001014618    0.000143765    0.001256135
      3        6          -0.000385099    0.000662498    0.001484128
      4        6          -0.010949263    0.001552634    0.003626135
      5        1          -0.000065088   -0.000206771    0.000070456
      6        1           0.000236128    0.000323796   -0.000425275
      7        1          -0.000061154   -0.000149217   -0.000320165
      8        1           0.000094774    0.000003015    0.000573408
      9        1           0.000176101    0.000209207   -0.001087865
     10        1           0.008542270   -0.005594651   -0.005533043
     11        1           0.001692577    0.000668629   -0.000877334
     12        1           0.002010751    0.002905058    0.001124626
 -------------------------------------------------------------------
 Cartesian Forces:  Max     0.010949263 RMS     0.002867697

 GradGradGradGradGradGradGradGradGradGradGradGradGradGradGradGradGradGrad
 Berny optimization.
 Using GEDIIS/GDIIS optimizer.
 FormGI is forming the generalized inverse of G from B-inverse, IUseBI=4.
 Internal  Forces:  Max     0.011358130 RMS     0.002044103
 Search for a local minimum.
 Step number   5 out of a maximum of   55
 All quantities printed in internal units (Hartrees-Bohrs-Radians)
 Mixed Optimization -- RFO/linear search
 Update second derivatives using D2CorX and points    4    5
 DE= -3.45D-04 DEPred=-3.66D-04 R= 9.43D-01
 TightC=F SS=  1.41D+00  RLast= 8.31D-01 DXNew= 8.4853D-01 2.4935D+00
 Trust test= 9.43D-01 RLast= 8.31D-01 DXMaxT set to 8.49D-01
 ITU=  1  1  1  1  0
 Use linear search instead of GDIIS.
     Eigenvalues ---    0.00031   0.00735   0.01578   0.01637   0.03227
     Eigenvalues ---    0.06939   0.06995   0.07248   0.07464   0.15966
     Eigenvalues ---    0.15999   0.16000   0.16000   0.16008   0.16029
     Eigenvalues ---    0.16291   0.21248   0.21888   0.23258   0.27924
     Eigenvalues ---    0.31619   0.32176   0.32874   0.33193   0.34454
     Eigenvalues ---    0.34840   0.34965   0.35143   0.57765   1.33120
 RFO step:  Lambda=-2.61012858D-04 EMin= 3.14523093D-04
 Quartic linear search produced a step of  0.12891.
 Iteration  1 RMS(Cart)=  0.08615646 RMS(Int)=  0.00596650
 Iteration  2 RMS(Cart)=  0.00626666 RMS(Int)=  0.00002857
 Iteration  3 RMS(Cart)=  0.00002669 RMS(Int)=  0.00001846
 Iteration  4 RMS(Cart)=  0.00000000 RMS(Int)=  0.00001846
 Variable       Old X    -DE/DX   Delta X   Delta X   Delta X     New X
                                 (Linear)    (Quad)   (Total)
    R1        2.83960   0.00003   0.00009   0.00043   0.00052   2.84012
    R2        2.06486  -0.00018  -0.00004  -0.00049  -0.00054   2.06432
    R3        2.07546  -0.00058   0.00012  -0.00019  -0.00006   2.07539
    R4        2.07357   0.00034  -0.00005   0.00015   0.00010   2.07367
    R5        2.52655   0.00108  -0.00007   0.00078   0.00071   2.52726
    R6        2.05950  -0.00002   0.00001   0.00011   0.00012   2.05963
    R7        2.84919  -0.00067  -0.00072  -0.00412  -0.00483   2.84436
    R8        2.05835   0.00019   0.00014   0.00058   0.00072   2.05907
    R9        2.10254  -0.01136   0.00373   0.00314   0.00687   2.10941
   R10        2.06407   0.00122  -0.00025   0.00133   0.00108   2.06515
   R11        2.07576  -0.00018   0.00056   0.00061   0.00117   2.07693
    A1        1.96522   0.00021   0.00033   0.00192   0.00224   1.96746
    A2        1.93642  -0.00004  -0.00039  -0.00164  -0.00203   1.93439
    A3        1.93834  -0.00019   0.00028   0.00052   0.00079   1.93913
    A4        1.88486  -0.00009   0.00016  -0.00049  -0.00033   1.88453
    A5        1.87752   0.00003  -0.00032  -0.00025  -0.00058   1.87694
    A6        1.85690   0.00008  -0.00007  -0.00015  -0.00022   1.85668
    A7        2.21543   0.00140   0.00093   0.00685   0.00778   2.22321
    A8        2.01300  -0.00064  -0.00046  -0.00347  -0.00393   2.00907
    A9        2.05474  -0.00076  -0.00047  -0.00339  -0.00386   2.05089
   A10        2.22101   0.00070   0.00219   0.01090   0.01308   2.23409
   A11        2.04925  -0.00009  -0.00048  -0.00134  -0.00184   2.04742
   A12        2.01239  -0.00060  -0.00177  -0.00959  -0.01138   2.00101
   A13        1.99041  -0.00376   0.00387   0.00496   0.00883   1.99924
   A14        1.94333  -0.00035   0.00069   0.00149   0.00214   1.94547
   A15        1.90837   0.00464  -0.00505  -0.00804  -0.01306   1.89531
   A16        1.86494   0.00195  -0.00113   0.00014  -0.00104   1.86389
   A17        1.86218   0.00025  -0.00078   0.00132   0.00060   1.86278
   A18        1.89047  -0.00283   0.00245   0.00013   0.00257   1.89304
    D1       -0.04078  -0.00006  -0.00346  -0.00833  -0.01179  -0.05257
    D2        3.09793  -0.00000  -0.00407  -0.01134  -0.01542   3.08251
    D3       -2.15568  -0.00005  -0.00361  -0.00786  -0.01147  -2.16715
    D4        0.98304   0.00001  -0.00422  -0.01088  -0.01510   0.96794
    D5        2.06604  -0.00001  -0.00345  -0.00695  -0.01040   2.05564
    D6       -1.07844   0.00005  -0.00406  -0.00997  -0.01403  -1.09246
    D7       -0.04855   0.00071  -0.00517  -0.00495  -0.01012  -0.05868
    D8        3.12987   0.00052  -0.00169  -0.00376  -0.00545   3.12443
    D9        3.09598   0.00065  -0.00454  -0.00187  -0.00642   3.08956
   D10       -0.00878   0.00046  -0.00107  -0.00068  -0.00174  -0.01052
   D11        0.49755   0.00000  -0.04283  -0.13586  -0.17874   0.31882
   D12        2.60955  -0.00042  -0.04107  -0.13095  -0.17201   2.43754
   D13       -1.58530  -0.00114  -0.04087  -0.13508  -0.17593  -1.76123
   D14       -2.68021   0.00019  -0.04624  -0.13688  -0.18315  -2.86336
   D15       -0.56821  -0.00023  -0.04447  -0.13198  -0.17643  -0.74464
[...]
     4   6    -0.04  -0.00   0.00     0.00  -0.01   0.03     0.00  -0.02   0.04
     5   1     0.52  -0.00   0.00    -0.00  -0.28   0.13     0.00   0.33  -0.15
     6   1     0.04  -0.07  -0.35    -0.26   0.35   0.13     0.25  -0.31  -0.20
     7   1     0.04   0.07   0.35     0.26   0.35   0.13    -0.25  -0.31  -0.20
     8   1     0.03  -0.00   0.00    -0.00   0.14  -0.07    -0.00   0.01  -0.01
     9   1     0.03  -0.00  -0.00    -0.00   0.14   0.07     0.00  -0.01  -0.01
    10   1     0.52  -0.00  -0.00    -0.00  -0.28  -0.13    -0.00  -0.33  -0.15
    11   1     0.04   0.07  -0.35     0.26   0.35  -0.13     0.25   0.31  -0.20
    12   1     0.04  -0.07   0.35    -0.26   0.35  -0.13    -0.25   0.31  -0.20
                     22                     23                     24
                     ?L                     B2                     A1
 Frequencies --   1751.7989              3028.2611              3030.8231
 Red. masses --      5.9873                 1.0393                 1.0406
 Frc consts  --     10.8256                 5.6154                 5.6317
 IR Inten    --      3.2529                47.8200                12.4642
  Atom  AN      X      Y      Z        X      Y      Z        X      Y      Z
     1   6     0.00  -0.14   0.06    -0.00  -0.03   0.02    -0.00  -0.04   0.01
     2   6    -0.00   1.15  -0.14    -0.00   0.00   0.00     0.00  -0.00   0.00
     3   6     0.00  -1.15  -0.14    -0.00   0.00  -0.00    -0.00   0.00   0.00
     4   6    -0.00   0.14   0.06    -0.00  -0.03  -0.02     0.00   0.04   0.01
     5   1    -0.00   0.46  -0.28    -0.00  -0.14  -0.23    -0.00  -0.13  -0.21
     6   1     0.20  -0.39   0.19     0.38   0.27   0.01     0.39   0.28   0.01
     7   1    -0.20  -0.39   0.19    -0.38   0.27   0.01    -0.39   0.28   0.01
     8   1     0.00  -0.47   0.82     0.00  -0.01  -0.01    -0.00  -0.01  -0.03
     9   1    -0.00   0.47   0.82     0.00  -0.01   0.01     0.00   0.01  -0.03
    10   1     0.00  -0.46  -0.28    -0.00  -0.14   0.23     0.00   0.13  -0.21
    11   1     0.20   0.39   0.19    -0.38   0.27  -0.01     0.39  -0.28   0.01
    12   1    -0.20   0.39   0.19     0.38   0.27  -0.01    -0.39  -0.28   0.01
                     25                     26                     27
                     ?G                     ?A                     ?L
 Frequencies --   3074.2337              3074.8364              3120.0000
 Red. masses --      1.0998                 1.0999                 1.0918
 Frc consts  --      6.1239                 6.1269                 6.2619
 IR Inten    --      0.0000                53.1501                 2.7934
  Atom  AN      X      Y      Z        X      Y      Z        X      Y      Z
     1   6    -0.07   0.00   0.00    -0.07   0.00   0.00    -0.00  -0.03  -0.04
     2   6    -0.00   0.00   0.00    -0.00  -0.00  -0.00     0.00   0.02   0.04
     3   6     0.00  -0.00   0.00    -0.00  -0.00   0.00     0.00   0.02  -0.04
     4   6     0.07  -0.00   0.00    -0.07   0.00  -0.00    -0.00  -0.03   0.04
     5   1    -0.01  -0.00  -0.00    -0.01  -0.00  -0.00     0.00   0.26   0.46
     6   1     0.41   0.32   0.01     0.41   0.32   0.01     0.12   0.08  -0.00
     7   1     0.41  -0.32  -0.01     0.41  -0.32  -0.01    -0.12   0.08  -0.00
     8   1     0.00  -0.00  -0.00     0.00   0.00   0.00    -0.00  -0.22  -0.42
     9   1    -0.00   0.00  -0.00     0.00   0.00  -0.00    -0.00  -0.22   0.42
    10   1     0.01   0.00  -0.00    -0.01  -0.00   0.00     0.00   0.26  -0.46
    11   1    -0.41   0.32  -0.01     0.41  -0.32   0.01    -0.12   0.08   0.00
    12   1    -0.41  -0.32   0.01     0.41   0.32  -0.01     0.12   0.08   0.00
                     28                     29                     30
                     ?L                     ?L                     ?L
 Frequencies --   3134.0472              3136.3700              3156.6944
 Red. masses --      1.0948                 1.0901                 1.0954
 Frc consts  --      6.3355                 6.3178                 6.4309
 IR Inten    --      8.2023                21.4254                65.6408
  Atom  AN      X      Y      Z        X      Y      Z        X      Y      Z
     1   6    -0.00  -0.04  -0.05     0.00  -0.03  -0.03    -0.00  -0.02  -0.02
     2   6     0.00   0.01   0.02    -0.00  -0.02  -0.04    -0.00  -0.03  -0.05
     3   6    -0.00  -0.01   0.02    -0.00  -0.02   0.04     0.00   0.03  -0.05
     4   6     0.00   0.04  -0.05     0.00  -0.03   0.03     0.00   0.02  -0.02
     5   1     0.00   0.33   0.57    -0.00   0.22   0.38    -0.00   0.12   0.21
     6   1     0.12   0.08  -0.00     0.10   0.07  -0.00     0.06   0.05  -0.00
     7   1    -0.12   0.08  -0.00    -0.10   0.07  -0.00    -0.06   0.05  -0.00
     8   1     0.00  -0.12  -0.23    -0.00   0.26   0.50    -0.00   0.31   0.61
     9   1    -0.00   0.12  -0.23    -0.00   0.26  -0.50     0.00  -0.31   0.61
    10   1    -0.00  -0.33   0.57    -0.00   0.22  -0.38     0.00  -0.12   0.21
    11   1     0.12  -0.08  -0.00    -0.10   0.07   0.00     0.06  -0.05  -0.00
    12   1    -0.12  -0.08  -0.00     0.10   0.07   0.00    -0.06  -0.05  -0.00

 -------------------
 - Thermochemistry -
 -------------------
 Temperature  3000.000 Kelvin.  Pressure   0.98700 Atm.
 Atom     1 has atomic number  6 and mass  12.00000
 Atom     2 has atomic number  6 and mass  12.00000
 Atom     3 has atomic number  6 and mass  12.00000
 Atom     4 has atomic number  6 and mass  12.00000
 Atom     5 has atomic number  1 and mass   1.00783
 Atom     6 has atomic number  1 and mass   1.00783
 Atom     7 has atomic number  1 and mass   1.00783
 Atom     8 has atomic number  1 and mass   1.00783
 Atom     9 has atomic number  1 and mass   1.00783
 Atom    10 has atomic number  1 and mass   1.00783
 Atom    11 has atomic number  1 and mass   1.00783
 Atom    12 has atomic number  1 and mass   1.00783
 Molecular mass:    56.06260 amu.
 Principal axes and moments of inertia in atomic units:
                           1         2         3
     Eigenvalues --   110.58078 357.45957 445.79952
           X            0.00000   0.00000   1.00000
           Y            1.00000   0.00000  -0.00000
           Z            0.00000   1.00000   0.00000
 This molecule is an asymmetric top.
 Rotational symmetry number  2.
 Rotational temperatures (Kelvin)      0.78326     0.24230     0.19429
 Rotational constants (GHZ):          16.32057     5.04880     4.04832
 Zero-point vibrational energy     284302.8 (Joules/Mol)
                                   67.95000 (Kcal/Mol)
 Warning -- explicit consideration of  30 degrees of freedom as
           vibrations may cause significant error
 Identified internal rotation modes:
   37   2
 Vibrational temperatures:    191.44   220.04   417.13   568.41   821.82
          (Kelvin)           1007.01  1257.83  1418.35  1453.94  1479.86
                             1528.20  1541.20  1674.21  1869.35  2013.53
                             2059.52  2085.47  2151.45  2156.63  2161.83
                             2172.57  2520.45  4356.99  4360.68  4423.14
                             4424.00  4488.98  4509.19  4512.54  4541.78
 
 Zero-point correction=                           0.108285 (Hartree/Particle)
 Thermal correction to Energy=                    0.332119
 Thermal correction to Enthalpy=                  0.341620
 Thermal correction to Gibbs Free Energy=        -0.486914
 Sum of electronic and zero-point Energies=           -157.128121
 Sum of electronic and thermal Energies=              -156.904287
 Sum of electronic and thermal Enthalpies=            -156.894787
 Sum of electronic and thermal Free Energies=         -157.723320
 
                     E (Thermal)             CV                S
                      KCal/Mol        Cal/Mol-Kelvin    Cal/Mol-Kelvin
 Total                  208.408             61.895            173.304
 Corrected for 
 internal rot.          203.607             59.930            170.447
 Electronic               0.000              0.000              0.000
 Translational            8.942              2.981             49.489
 Rotational               8.942              2.981             29.885
 Vibrational            190.523             55.933             93.930
 Vibration     1          5.964              1.987              7.456
 Vibration     2          5.964              1.986              7.179
 Vibration     3          5.971              1.984              5.910
 Vibration     4          5.979              1.981              5.296
 Vibration     5          5.999              1.975              4.567
 Vibration     6          6.017              1.969              4.166
 Vibration     7          6.049              1.958              3.729
 Vibration     8          6.072              1.951              3.494
 Vibration     9          6.078              1.949              3.446
 Vibration    10          6.082              1.947              3.412
 Vibration    11          6.090              1.945              3.349
 Vibration    12          6.092              1.944              3.332
 Vibration    13          6.116              1.936              3.172
 Vibration    14          6.153              1.924              2.959
 Vibration    15          6.184              1.914              2.816
 Vibration    16          6.194              1.911              2.773
 Vibration    17          6.200              1.909              2.749
 Vibration    18          6.215              1.904              2.690
 Vibration    19          6.216              1.904              2.685
 Vibration    20          6.217              1.903              2.681
 Vibration    21          6.220              1.903              2.671
 Vibration    22          6.308              1.874              2.391
 Vibration    23          6.974              1.672              1.412
 Vibration    24          6.976              1.671              1.410
 Vibration    25          7.004              1.663              1.386
 Vibration    26          7.005              1.663              1.386
 Vibration    27          7.035              1.655              1.362
 Vibration    28          7.044              1.652              1.354
 Vibration    29          7.045              1.651              1.353
 Vibration    30          7.059              1.647              1.343
                       Q            Log10(Q)             Ln(Q)
 Total Bot       0.181279D+23         22.258348         51.251741
 Corrected for 
 Internal rot.   0.963296D+22         21.983760         50.619477
 Total V=0       0.161586D+28         27.208404         62.649665
 Corrected for 
 Internal rot.   0.858647D+27         26.933815         62.017400
 Vib (Bot)       0.445264D+07          6.648617         15.309007
 Vib (Bot)    1  0.156681D+02          1.195017          2.751628
 Vib (Bot)    2  0.136306D+02          1.134516          2.612319
 Vib (Bot)    3  0.718623D+01          0.856501          1.972166
 Vib (Bot)    4  0.526998D+01          0.721809          1.662027
 Vib (Bot)    5  0.363906D+01          0.560989          1.291725
 Vib (Bot)    6  0.296518D+01          0.472051          1.086937
 Vib (Bot)    7  0.236768D+01          0.374323          0.861910
 Vib (Bot)    8  0.209557D+01          0.321302          0.739825
 Vib (Bot)    9  0.204331D+01          0.310334          0.714570
 Vib (Bot)   10  0.200681D+01          0.302506          0.696546
 Vib (Bot)   11  0.194202D+01          0.288254          0.663730
 Vib (Bot)   12  0.192529D+01          0.284496          0.655076
 Vib (Bot)   13  0.176885D+01          0.247691          0.570329
 Vib (Bot)   14  0.157916D+01          0.198427          0.456894
 Vib (Bot)   15  0.146232D+01          0.165042          0.380023
 Vib (Bot)   16  0.142843D+01          0.154860          0.356579
 Vib (Bot)   17  0.140997D+01          0.149208          0.343565
 Vib (Bot)   18  0.136497D+01          0.135122          0.311130
 Vib (Bot)   19  0.136155D+01          0.134035          0.308627
 Vib (Bot)   20  0.135813D+01          0.132943          0.306112
 Vib (Bot)   21  0.135114D+01          0.130699          0.300946
 Vib (Bot)   22  0.115597D+01          0.062945          0.144936
 Vib (Bot)   23  0.631561D+00         -0.199585         -0.459561
 Vib (Bot)   24  0.630936D+00         -0.200014         -0.460550
 Vib (Bot)   25  0.620503D+00         -0.207256         -0.477225
 Vib (Bot)   26  0.620360D+00         -0.207356         -0.477455
 Vib (Bot)   27  0.609800D+00         -0.214813         -0.494624
 Vib (Bot)   28  0.606574D+00         -0.217116         -0.499929
 Vib (Bot)   29  0.606043D+00         -0.217496         -0.500804
 Vib (Bot)   30  0.601430D+00         -0.220815         -0.508445
 Vib (V=0)       0.396892D+12         11.598673         26.706931
 Vib (V=0)    1  0.161761D+02          1.208874          2.783534
 Vib (V=0)    2  0.141398D+02          1.150443          2.648993
 Vib (V=0)    3  0.770360D+01          0.886694          2.041688
 Vib (V=0)    4  0.579365D+01          0.762952          1.756763
 Vib (V=0)    5  0.417325D+01          0.620474          1.428695
 Vib (V=0)    6  0.350704D+01          0.544940          1.254772
 Vib (V=0)    7  0.291990D+01          0.465368          1.071548
 Vib (V=0)    8  0.265439D+01          0.423965          0.976216
 Vib (V=0)    9  0.260359D+01          0.415573          0.956893
 Vib (V=0)   10  0.256816D+01          0.409622          0.943190
 Vib (V=0)   11  0.250536D+01          0.398869          0.918431
 Vib (V=0)   12  0.248915D+01          0.396052          0.911943
 Vib (V=0)   13  0.233816D+01          0.368874          0.849364
 Vib (V=0)   14  0.215643D+01          0.333735          0.768453
 Vib (V=0)   15  0.204544D+01          0.310786          0.715611
 Vib (V=0)   16  0.201341D+01          0.303933          0.699832
 Vib (V=0)   17  0.199600D+01          0.300159          0.691143
 Vib (V=0)   18  0.195366D+01          0.290849          0.669706
 Vib (V=0)   19  0.195046D+01          0.290137          0.668064
 Vib (V=0)   20  0.194725D+01          0.289422          0.666418
 Vib (V=0)   21  0.194068D+01          0.287955          0.663040
 Vib (V=0)   22  0.175947D+01          0.245381          0.565011
 Vib (V=0)   23  0.130552D+01          0.115785          0.266605
 Vib (V=0)   24  0.130503D+01          0.115622          0.266230
 Vib (V=0)   25  0.129688D+01          0.112901          0.259964
 Vib (V=0)   26  0.129677D+01          0.112864          0.259878
 Vib (V=0)   27  0.128858D+01          0.110111          0.253540
 Vib (V=0)   28  0.128609D+01          0.109270          0.251604
 Vib (V=0)   29  0.128568D+01          0.109132          0.251285
 Vib (V=0)   30  0.128212D+01          0.107930          0.248518
 Electronic      0.100000D+01          0.000000          0.000000
 Translational   0.536862D+10          9.729863         22.403837
 Rotational      0.758348D+06          5.879868         13.538897
 ***** Axes restored to original set *****
 -------------------------------------------------------------------
 Center     Atomic                   Forces (Hartrees/Bohr)
 Number     Number              X              Y              Z
 -------------------------------------------------------------------
      1        6          -0.000023001   -0.000047294    0.000000784
      2        6          -0.000117700   -0.000142304    0.000009740
      3        6           0.000143114    0.000116139   -0.000015113
      4        6           0.000047255    0.000022324   -0.000005911
      5        1          -0.000003813   -0.000009528    0.000000033
      6        1           0.000011991    0.000031837    0.000028577
      7        1           0.000003516    0.000035036   -0.000027095
      8        1           0.000006879    0.000011235   -0.000000402
      9        1          -0.000011253   -0.000006732    0.000001326
     10        1           0.000009505    0.000003669   -0.000001236
     11        1          -0.000029009   -0.000008790    0.000032484
     12        1          -0.000037484   -0.000005591   -0.000023188
 -------------------------------------------------------------------
 Cartesian Forces:  Max     0.000143114 RMS     0.000047838
 FormGI is forming the generalized inverse of G from B-inverse, IUseBI=4.

 ----------------------------------------------------------------------

 Electric dipole moment (input orientation):
 (Debye = 10**-18 statcoulomb cm , SI units = C m)
                  (au)            (Debye)         (10**-30 SI)
   Tot        0.786007D-01      0.199783D+00      0.666405D+00
   x         -0.541809D-01     -0.137714D+00     -0.459365D+00
   y          0.557794D-01      0.141777D+00      0.472917D+00
   z          0.114531D-01      0.291108D-01      0.971030D-01

 Dipole polarizability, Alpha (input orientation).
 (esu units = cm**3 , SI units = C**2 m**2 J**-1)
 Alpha(0;0):
               (au)            (10**-24 esu)      (10**-40 SI)
   iso        0.435235D+02      0.644951D+01      0.717605D+01
   aniso      0.269366D+02      0.399160D+01      0.444125D+01
   xx         0.502983D+02      0.745344D+01      0.829307D+01
   yx         0.982688D+01      0.145619D+01      0.162023D+01
   yy         0.503368D+02      0.745915D+01      0.829942D+01
   zx        -0.259264D+01     -0.384190D+00     -0.427468D+00
   zy        -0.301971D+00     -0.447475D-01     -0.497883D-01
   zz         0.299353D+02      0.443595D+01      0.493566D+01

 ----------------------------------------------------------------------

 Dipole orientation:
     6         -2.03723345         -2.21544002          0.99771816
     6         -0.87172298         -0.91730889         -1.24268663
     6          0.81725412          0.96385289         -1.24268663
     6          1.98276458          2.26198402          0.99771816
     1         -1.36619236         -1.46804276          2.80121072
     1         -1.63091699         -4.24895590          0.96560784
     1         -4.10261654         -2.02977200          0.96560784
     1         -1.50195260         -1.61925084         -3.07400506
     1          1.44748374          1.66579484         -3.07400506
     1          1.31172349          1.51458676          2.80121072
     1          4.04814767          2.07631600          0.96560784
     1          1.57644812          4.29549990          0.96560784

 Electric dipole moment (dipole orientation):
 (Debye = 10**-18 statcoulomb cm , SI units = C m)
                  (au)            (Debye)         (10**-30 SI)
   Tot        0.786007D-01      0.199783D+00      0.666405D+00
   x          0.000000D+00      0.000000D+00      0.000000D+00
   y          0.000000D+00      0.000000D+00      0.000000D+00
   z          0.786007D-01      0.199783D+00      0.666405D+00

 Dipole polarizability, Alpha (dipole orientation).
 (esu units = cm**3 , SI units = C**2 m**2 J**-1)
 Alpha(0;0):
               (au)            (10**-24 esu)      (10**-40 SI)
   iso        0.435235D+02      0.644951D+01      0.717605D+01
   aniso      0.269366D+02      0.399160D+01      0.444125D+01
   xx         0.432713D+02      0.641214D+01      0.713447D+01
   yx         0.152737D+02      0.226333D+01      0.251830D+01
   yy         0.465696D+02      0.690090D+01      0.767829D+01
   zx         0.000000D+00      0.000000D+00      0.000000D+00
   zy         0.000000D+00      0.000000D+00      0.000000D+00
   zz         0.407296D+02      0.603550D+01      0.671540D+01

 ----------------------------------------------------------------------

 This type of calculation cannot be archived.


 The most important thing in communication is to hear what isn't being said.
 -- Peter F. Drucker
 Job cpu time:       0 days  0 hours  0 minutes  0.4 seconds.
 Elapsed time:       0 days  0 hours  0 minutes  0.3 seconds.
 File lengths (MBytes):  RWF=      6 Int=      0 D2E=      0 Chk=      2 Scr=      1
 Normal termination of Gaussian 16 at Mon Nov  7 09:18:57 2022.
