
 Primary working directories    : /home/tmp/molpro/molpro.3rduph4jEo
 Secondary working directories  : /home/tmp/molpro/molpro.3rduph4jEo
 Wavefunction directory         : /root/wfu/
 Main file repository           : /home/tmp/molpro/molpro.qwuY08kcX5/

 id        : scuxyl

 Nodes                nprocs
 localhost.localdomain    8
 Main file repository           : /home/tmp/molpro/molpro.IirUrWkThw/

 id        : scuxyl
 Wavefunction directory         : /root/wfu/
ldomain    8
 Main file repository           : /home/tmp/molpro/molpro.3rduph4jEo/

 id        : scuxyl

 Nodes                nprocs
 localhost.localdomain    8

 Using customized tuning parameters: mindgm=1; mindgv=20; mindgc=4; mindgr=1; noblas=0; minvec=7
 default implementation of scratch files=sf  


 Variables initialized (934), CPU time= 0.02 sec
 ***,[CH2]-T
 nosym
 geometry={
 C        0.000000        0.000000        0.104203
 H        0.000000        0.994486       -0.312609
 H        0.000000       -0.994486       -0.312609
 }
 
 basis=vdz
 {rhf;occ,5;wf,8,1,2,state,1}
 uccsd(t)
 
 basis=vtz
 rhf
 uccsd(t)
 
 basis=vqz
 rhf
 Commands  initialized (763), CPU time= 0.02 sec, 617 directives.
 Default parameters read. Elapsed time= 0.08 sec
247599        0.075745       -0.877175
 H        1.719566       -2.223383        0.000000
 H        0.189428       -2.208137       -0.882829
 H        0.189428       -2.208137        0.882829
 }
 
 basis=vdz
 {hf;occ,17;wf,34,1,0,state,1}
 ccsd(t)
 
 basis=vtz
 hf
 ccsd(t)
 
 basis=vqz
 hf

 Checking input...
 Passed
1


                                         ***  PROGRAM SYSTEM MOLPRO  ***
                                       Copyright, TTI GmbH Stuttgart, 2015
                                    Version 2019.2 linked Jun  8 2019 11:26:33


 **********************************************************************************************************************************
 LABEL *   [CH2]-T                                                                       
  64 bit mpp version                                                                     DATE: 18-Mar-22          TIME: 01:40:43  
 **********************************************************************************************************************************

 SHA1:             8135a10abc80eafa5b3ae28ffc55be4890dc4c84
 **********************************************************************************************************************************

 Variable memory set to  500000000 words,  buffer space 

 ZSYMEL=NOSYM


Geometry recognized as XYZ

 SETTING BASIS          =    VDZ


 Recomputing integrals since basis changed


 Using spherical harmonics

 Library entry C      S cc-pVDZ              selected for orbital group  1
 Library entry C      P cc-pVDZ              selected for orbital group  1
 Library entry C      D cc-pVDZ              selected for orbital group  1
 Library entry H      S cc-pVDZ              selected for orbital group  2
 Library entry H      P cc-pVDZ              selected for orbital group  2


 PROGRAM * SEWARD (Integral evaluation for generally contracted gaussian basis sets)     Author: Roland Lindh, 1990

 Geometry written to block  1 of record 700


 Point group  C1  



 ATOMIC COORDINATES

 NR  ATOM    CHARGE       X              Y              Z

   1  C       6.00    0.000000000    0.000000000    0.196915131
   2  H       1.00    0.000000000    1.879306175   -0.590745394
   3  H       1.00    0.000000000   -1.879306175   -0.590745394

 Bond lengths in Bohr (Angstrom)

 1-2  2.037694973  1-3  2.037694973
     ( 1.078301742)     ( 1.078301742)

 Bond angles

  2-1-3  134.52063835

 NUCLEAR CHARGE:                    8
 NUMBER OF PRIMITIVE AOS:          41
 NUMBER OF SYMMETRY AOS:           40
 NUMBER OF CONTRACTIONS:           24   (   24A   )
 NUMBER OF CORE ORBITALS:           1   (    1A   )
 NUMBER OF VALENCE ORBITALS:        6   (    6A   )


 NUCLEAR REPULSION ENERGY    6.15506266

 EXTRA SYMMETRY OF AOS IN SYMMETRY 1:   1 1 1 2 1 1 2 1 1 1   2 2 1 1 1 1 2 1 1 1   1 2 1 1

 Eigenvalues of metric

         1 0.180E-01 0.344E-01 0.397E-01 0.495E-01 0.118E+00 0.131E+00 0.165E+00 0.176E+00


 Contracted 2-electron integrals neglected if value below      1.0D-11
Z

   1  C       6.00    0.000000000    2.392476422   -0.493798664
   2  C       6.00    0.000000000    0.000000000    1.120360038
   3  C       6.00    0.000000000   -2.392476422   -0.493798664
   4  H       1.00    0.000000000    4.097610319    0.668203378
   5  H       1.00    1.667566142    2.452031140   -1.712284621
   6  H       1.00   -1.667566142    2.452031140   -1.712284621
   7  H       1.00   -1.655961334    0.000000000    2.358068288
   8  H       1.00    1.655961334    0.000000000    2.358068288
   9  H       1.00    0.000000000   -4.097610319    0.668203378
  10  H       1.00    1.667566142   -2.452031140   -1.712284621
  11  H       1.00   -1.667566142   -2.452031140   -1.712284621

 Bond lengths in Bohr (Angstrom)

 1-2  2.886078957  1-4  2.063426847  1-5  2.066163505  1-6  2.066163505  2-3  2.886078957
     ( 1.527247213)     ( 1.091918464)     ( 1.093366641)     ( 1.093366641)     ( 1.527247213)

  2- 7  2.067396830   2- 8  2.067396830   3- 9  2.063426847   3-10  2.066163505   3-11  2.066163505
       ( 1.094019288)       ( 1.094019288)       ( 1.091918464)       ( 1.093366641)       ( 1.093366641)

 Bond angles

  1-2-3  111.98640601   1-2-7  109.56258043   1-2-8  109.56258043   2-1-4  111.71984468

  2- 1- 5  110.71544122   2- 1- 6  110.71544122   2- 3- 9  111.71984468   2- 3-10  110.71544122

  2- 3-11  110.71544122   3- 2- 7  109.56258043   3- 2- 8  109.56258043   4- 1- 5  107.95589492

  4- 1- 6  107.95589492   5- 1- 6  107.62387369   7- 2- 8  106.44922516   9- 3-10  107.95589492

  9- 3-11  107.95589492  10- 3-11  107.62387369

 NUCLEAR CHARGE:                   26
 NUMBER OF PRIMITIVE AOS:         137
 NUMBER OF SYMMETRY AOS:          134
 NUMBER OF CONTRACTIONS:           82   (   82A   )
 NUMBER OF CORE ORBITALS:           3   (    3A   )
 NUMBER OF VALENCE ORBITALS:       20   (   20A   )


 NUCLEAR REPULSION ENERGY   82.63933231


 Variable memory set to  500000000 words,  buffer space 

 ZSYMEL=NOSYM


Geometry recognized as XYZ

 SETTING BASIS          =    VDZ


 Recomputing integrals since basis changed


 Using spherical harmonics

 Library entry C      S cc-pVDZ              selected for orbital group  1
 Library entry C      P cc-pVDZ              selected for orbital group  1
 Library entry C      D cc-pVDZ              selected for orbital group  1
 Library entry H      S cc-pVDZ              selected for orbital group  2
 Library entry H      P cc-pVDZ              selected for orbital group  2


 PROGRAM * SEWARD (Integral evaluation for generally contracted gaussian basis sets)     Author: Roland Lindh, 1990

 Geometry written to block  1 of record 700


 Point group  C1  



 ATOMIC COORDINATES

 NR  ATOM    CHARGE       X              Y              Z

   1  C       6.00   -1.332050938    3.440185939    0.000000000
   2  C       6.00   -1.332050938    0.555095711    0.000000000
   3  C       6.00    1.332050938   -0.555095711    0.000000000
   4  C       6.00    1.332050938   -3.440185939    0.000000000
   5  H       1.00   -3.249508793    4.201584940    0.000000000
   6  H       1.00   -0.357967040    4.172774176    1.668305025
   7  H       1.00   -0.357967040    4.172774176   -1.668305025
   8  H       1.00   -2.357620423   -0.143137305   -1.657620513
   9  H       1.00   -2.357620423   -0.143137305    1.657620513
  10  H       1.00    2.357620423    0.143137305    1.657620513
  11  H       1.00    2.357620423    0.143137305   -1.657620513
  12  H       1.00    3.249508793   -4.201584940    0.000000000
  13  H       1.00    0.357967040   -4.172774176   -1.668305025
  14  H       1.00    0.357967040   -4.172774176    1.668305025

 Bond lengths in Bohr (Angstrom)

 1-2  2.885090228  1-5  2.063097930  1-6  2.066099373  1-7  2.066099373  2-3  2.886167666
     ( 1.526724000)     ( 1.091744408)     ( 1.093332704)     ( 1.093332704)     ( 1.527294156)

  2- 8  2.070513917   2- 9  2.070513917   3- 4  2.885090228   3-10  2.070513917   3-11  2.070513917
       ( 1.095668780)       ( 1.095668780)       ( 1.526724000)       ( 1.095668780)       ( 1.095668780)

  4-12  2.063097930   4-13  2.066099373   4-14  2.066099373
       ( 1.091744408)       ( 1.093332704)       ( 1.093332704)

 Bond angles

  1-2-3  112.62259485   1-2-8  109.70801239   1-2-9  109.70801239   2-1-5  111.65742006

  2- 1- 6  110.76743056   2- 1- 7  110.76743056   2- 3- 4  112.62259485   2- 3-10  109.11668263

  2- 3-11  109.11668263   3- 2- 8  109.11668263   3- 2- 9  109.11668263   3- 4-12  111.65742006

  3- 4-13  110.76743056   3- 4-14  110.76743056   4- 3-10  109.70801239   4- 3-11  109.70801239

  5-1-6  107.89781345   5-1-7  107.89781345   6-1-7  107.69817562   8-2-9  106.37183141

 10- 3-11  106.37183141  12- 4-13  107.89781345  12- 4-14  107.89781345  13- 4-14  107.69817562

 NUCLEAR CHARGE:                   34
 NUMBER OF PRIMITIVE AOS:         178
 NUMBER OF SYMMETRY AOS:          174
 NUMBER OF CONTRACTIONS:          106   (  106A   )
 NUMBER OF CORE ORBITALS:           4   (    4A   )
 NUMBER OF VALENCE ORBITALS:       26   (   26A   )


 NUCLEAR REPULSION ENERGY  130.78196425


 Eigenvalues of metric

         1 0.260E-02 0.509E-02 0.687E-02 0.157E-01 0.170E-01 0.206E-01 0.237E-01 0.282E-01


 Contracted 2-electron integrals neglected if value below      1.0D-11
 AO integral compression algorithm  1   Integral accuracy      1.0D-11
 AO integral compression algorithm  1   Integral accuracy      1.0D-11

     2.097 MB (compressed) written to integral file ( 76.0%)

     Node minimum: 0.262 MB, node maximum: 0.262 MB

al file ( 86.0%)

     Node minimum: 0.262 MB, node maximum: 0.262 MB


 NUMBER OF SORTED TWO-ELECTRON INTEGRALS:       5624.     BUFFER LENGTH:  32768
 NUMBER OF SEGMENTS:   1  SEGMENT LENGTH:       5624      RECORD LENGTH: 524288

 Memory used in sort:       0.56 MW

 SORT1 READ       59680. AND WROTE        2611. INTEGRALS IN      1 RECORDS. CPU TIME:     0.08 SEC, REAL TIME:     0.09 SEC
 SORT2 READ         512. AND WROTE        1540. INTEGRALS IN      8 RECORDS. CPU TIME:     0.00 SEC, REAL TIME:     0.00 SEC

 Node minimum:         168.  Node maximum:         217. integrals
 SORT2 READ       21643. AND WROTE       45150. INTEGRALS IN      8 RECORDS. CPU TIME:     0.00 SEC, REAL TIME:     0.00 SEC

 Node minimum:        5513.  Node maximum:        5776. integrals

 OPERATOR DM      FOR CENTER  0  COORDINATES:    0.000000    0.000000    0.000000


 **********************************************************************************************************************************
 DATASETS  * FILE   NREC   LENGTH (MB)   RECORD NAMES
              1      18       29.99       500      610      700      900      950      970     1000      129      960     1100   
                                          VAR    BASINP    GEOM    SYMINP    ZMAT    AOBASIS   BASIS     P2S    ABASIS      S 
                                         1400     1410     1200     1210     1080     1600     1650     1700   
                                           T        V       H0       H01     AOSYM     SMH    MOLCAS    OPER   

 PROGRAMS   *        TOTAL       INT
 CPU TIMES  *         1.51      1.30
 REAL TIME  *         2.20 SEC
 DISK USED  *        30.29 MB (local),      276.09 MB (total)
 GA USED    *         0.00 MB       (max)       0.00 MB       (current)
 **********************************************************************************************************************************


 PROGRAM * RHF-SCF (OPEN SHELL)       Authors: W. Meyer, H.-J. Werner


 NUMBER OF ELECTRONS:       5+    3-    SPACE SYMMETRY=1    SPIN SYMMETRY: Triplet 
 CONVERGENCE THRESHOLDS:    1.00E-05 (Density)    1.00E-07 (Energy)
 MAX. NUMBER OF ITERATIONS:       60
 INTERPOLATION TYPE:            DIIS
 INTERPOLATION STEPS:              2 (START)      1 (STEP)
 LEVEL SHIFTS:                 -0.60 (CLOSED) -0.30 (OPEN) 



 Orbital guess generated from atomic densities. Full valence occupancy:    7

 Molecular orbital dump at record        2100.2

 ITERATION    DDIFF          GRAD             ENERGY        2-EL.EN.            DIPOLE MOMENTS         DIIS   ORB.
    1      0.000D+00      0.000D+00       -38.91060256     37.060512    0.00000   -0.00000   -0.26486    0    start
    2      0.000D+00      0.627D-02       -38.91877042     37.533855   -0.00000   -0.00000   -0.26958    1    diag,B
    3      0.129D-01      0.255D-02       -38.92075869     37.638606   -0.00000   -0.00000   -0.24916    2    diag,B
-06        -1.12870326      1.317772    0.00000   -0.00000   -0.00000    4    diag
    4      0.710D-02      0.937D-03       -38.92121981     37.646620   -0.00000   -0.00000   -0.22963    3    diag,B
    5      0.306D-02      0.330D-03       -38.92130451     37.643587   -0.00000   -0.00000   -0.21796    4    diag,B
    6      0.901D-03      0.113D-03       -38.92131468     37.642822   -0.00000   -0.00000   -0.21246    5    diag,B
0      970     1000      129      960     1100   
                                          VAR    BASINP    GEOM    SYMINP    ZMAT    AOBASIS   BASIS     P2S    ABASIS      S 
                                         1400     1410     1200     1210     1080     1600     1650     1700   
                                           T        V       H0       H01     AOSYM     SMH    MOLCAS    OPER   

 PROGRAMS   *        TOTAL       INT
 CPU TIMES  *         1.33      1.13
 REAL TIME  *         2.38 SEC
 DISK USED  *        30.84 MB (local),      337.17 MB (total)
 GA USED    *         0.00 MB       (max)       0.00 MB       (current)
 **********************************************************************************************************************************
 **********************************************************************************************************************************
 DATASETS  * FILE   NREC   LENGTH (MB)   RECORD NAMES
              1      18       29.95       500      610      700      900      950      970     1000      129      960     1100   
                                          VAR    BASINP    GEOM    SYMINP    ZMAT    AOBASIS   BASIS     P2S    ABASIS      S 
                                         1400     1410     1200     1210     1080     1600     1650     1700   
                                           T        V       H0       H01     AOSYM     SMH    MOLCAS    OPER   

              2       4        2.76       700     1000      520     2100   
                                         GEOM     BASIS   MCVARS     RHF  

 PROGRAMS   *        TOTAL    HF-SCF       INT
 CPU TIMES  *         1.59      0.14      1.23
 REAL TIME  *         2.41 SEC
 DISK USED  *        32.75 MB (local),      295.60 MB (total)
 SF USED    *         0.00 MB
 GA USED    *         0.00 MB       (max)       0.00 MB       (current)
 **********************************************************************************************************************************
    7      0.452D-03      0.183D-04       -38.92131487     37.642684   -0.00000   -0.00000   -0.21168    6    fixocc
    8      0.719D-04      0.457D-05       -38.92131488     37.642685   -0.00000   -0.00000   -0.21152    7    diag,B
CCSD">
   <!--


 PROGRAM * CCSD (Closed-shell coupled cluster)     Authors: C. Hampel, H.-J. Werner, 1991, M. Deegan, P.J. Knowles, 1992


 Convergence thresholds:  THRVAR = 1.00D-08  THRDEN = 1.00D-06

 CCSD(T)     terms to be evaluated (factor= 1.000)


 Number of closed-shell orbitals:   1 (   1 )
 Number of external orbitals:       9 (   9 )

 Molecular orbitals read from record     2100.2  Type=RHF/CANONICAL (state 1.1)

 Number of N-1 electron functions:               1
 Number of N-2 electron functions:               1
 Number of singly external CSFs:                 9
 Number of doubly external CSFs:                45
 Total number of CSFs:                          55

 Length of J-op  integral file:               0.00 MB
 Length of K-op  integral file:               0.01 MB
 Length of 3-ext integral record:             0.00 MB
    9      0.198D-04      0.699D-06       -38.92131488     37.642698   -0.00000   -0.00000   -0.21153    8    diag,B
                -1.12870326

 MP2 singlet pair energy:              -0.02637406
 MP2 triplet pair energy:               0.00000000
 MP2 correlation energy:               -0.02637406
 MP2 total energy:                     -1.15507731

 SCS-MP2 correlation energy:           -0.03164887   (PS=  1.200000  PT=  0.333333)
 SCS-MP2 total energy:                 -1.16035213

 ITER.      SQ.NORM     CORR.ENERGY   TOTAL ENERGY   ENERGY CHANGE        DEN1      VAR(S)    VAR(P)  DIIS     TIME  TIME/IT
   1      1.01377656    -0.03384192    -1.16254518    -0.00746787    -0.00550071  0.28D-04  0.54D-03  1  1     0.02     0.00
   2      1.01674997    -0.03466650    -1.16336975    -0.00082457    -0.00261584  0.22D-05  0.12D-04  2  2     0.02     0.00
   3      1.01711409    -0.03467483    -1.16337809    -0.00000833    -0.00016808  0.11D-07  0.37D-06  3  3     0.02     0.00
   4      1.01716124    -0.03468086    -1.16338412    -0.00000603    -0.00002215  0.88D-09  0.19D-08  4  4     0.02     0.00
   5      1.01715940    -0.03467886    -1.16338211     0.00000201     0.00000195  0.18D-10  0.29D-10  5  5     0.02     0.00
   6      1.01715999    -0.03467937    -1.16338263    -0.00000052    -0.00000049  0.10D-11  0.12D-12  6  6     0.02     0.00
   7      1.01715982    -0.03467924    -1.16338250     0.00000013     0.00000013  0.43D-13  0.47D-13  6  1     0.02     0.00

 Norm of t1 vector:      0.01029727      S-energy:    -0.00000000      T1 diagnostic:  0.00514863
                                                                       D1 diagnostic:  0.00728127

 Doubles amplitudes (print threshold =  0.500E-01):

         I         J         SYM. A    SYM. B    A         B      T(IJ, AB)

         1         1         1         1         1         1     -0.05345372
         1         1         1         1         2         2     -0.05072191
         1         1         1         1         3         3     -0.05315639


 RESULTS
 =======

  Reference energy                     -1.128703256545
  CCSD singlet pair energy             -0.034679237946
  CCSD triplet pair energy              0.000000000000
  CCSD correlation energy              -0.034679239982

  Triples (T) contribution              0.000000000000
  Total correlation energy             -0.034679239982

  CCSD total energy                    -1.163382496528
 !CCSD(T) total energy                 -1.163382496528

 Timing summary (sec):

 STEP                 CPU(USER)    SYS     CPU(TOT)    WALL
 CCSD iterations         0.03      0.02      0.05      0.06

 Program statistics:

 Available memory in ccsd:               499999995
 Min. memory needed in ccsd:                  1573
 Max. memory used in ccsd:                    1573
 Max. memory used in cckext:                 33524 ( 7 integral passes)

   10      0.213D-05      0.261D-06       -38.92131488     37.642698   -0.00000   -0.00000   -0.21154    0    orth

 Final alpha occupancy:   5
 Final beta  occupancy:   3

 !RHF STATE  1.1 Energy               -38.921314884381
 Nuclear energy                         6.15506266
 One-electron energy                  -63.89772653
 Two-electron energy                   18.82134899
 Virial quotient                       -1.00085593
 !RHF STATE  1.1 Dipole moment         -0.00000000    -0.00000000    -0.21153636
 Dipole moment /Debye                  -0.00000000    -0.00000000    -0.53763658

 Orbital energies:

         1.1          2.1          3.1          4.1          5.1          6.1          7.1
    -11.246235    -0.849635    -0.600061    -0.462932    -0.400233     0.198168     0.255991


 HOMO      5.1    -0.400233 =     -10.8909eV
 LUMO      6.1     0.198168 =       5.3924eV
 LUMO-HOMO         0.598401 =      16.2833eV


 **********************************************************************************************************************************
 DATASETS  * FILE   NREC   LENGTH (MB)   RECORD NAMES
              1      18       29.99       500      610      700      900      950      970     1000      129      960     1100   
                                          VAR    BASINP    GEOM    SYMINP    ZMAT    AOBASIS   BASIS     P2S    ABASIS      S 
                                         1400     1410     1200     1210     1080     1600     1650     1700   
                                           T        V       H0       H01     AOSYM     SMH    MOLCAS    OPER   

              2       4        2.80       700     1000      520     2100   
                                         GEOM     BASIS   MCVARS     RHF  

 PROGRAMS   *        TOTAL   RHF-SCF       INT
 CPU TIMES  *         1.75      0.24      1.30
 REAL TIME  *         2.49 SEC
 DISK USED  *        32.91 MB (local),      297.04 MB (total)
 SF USED    *         0.00 MB
 GA USED    *         0.00 MB       (max)       0.00 MB       (current)
 **********************************************************************************************************************************


 PROGRAM * CCSD (Unrestricted open-shell coupled cluster)     Authors: C. Hampel, H.-J. Werner, 1991, M. Deegan, P.J. Knowles, 1992


 Convergence thresholds:  THRVAR = 1.00D-08  THRDEN = 1.00D-06

 CCSD(T)     terms to be evaluated (factor= 1.000)


 Number of core orbitals:           1 (   1 )
 Number of closed-shell orbitals:   2 (   2 )
 Number of active  orbitals:        2 (   2 )
 Number of external orbitals:      19 (  19 )

 Memory could be reduced to 0.16 Mwords without degradation in triples

 Number of N-1 electron functions:               6
 Number of N-2 electron functions:              15
 Number of singly external CSFs:               126
 Number of doubly external CSFs:              4998
 Total number of CSFs:                        5124

 Molecular orbitals read from record     2100.2  Type=RHF/CANONICAL (state 1.1)

 Integral transformation finished. Total CPU:   0.01 sec, npass=  1  Memory used:   0.12 MW

 Starting RMP2 calculation, locsing= 0

CORE ORBITALS:           0   (    0A   )
 NUMBER OF VALENCE ORBITALS:        2   (    2A   )


 NUCLEAR REPULSION ENERGY    0.71483772

 EXTRA SYMMETRY OF AOS IN SYMMETRY 1:   1 1 1 2 3 1 2 3 1 1   4 2 5 3 1 1 1 2 3 1   2 3 1 1 4 2 5 3

 Eigenvalues of metric

         1 0.175E-02 0.699E-02 0.740E-02 0.429E-01 0.102E+00 0.102E+00 0.134E+00 0.227E+00


 Contracted 2-electron integrals neglected if value below      1.0D-11
 ITER.      SQ.NORM     CORR.ENERGY   TOTAL ENERGY   ENERGY CHANGE        DEN1      VAR(S)    VAR(P)  DIIS     TIME
   1      1.03395309    -0.09709132   -39.01840620    -0.09709132    -0.00049825  0.22D-04  0.16D-03  1  1     0.05
   2      1.03441186    -0.09763909   -39.01895398    -0.00054777    -0.00000094  0.31D-06  0.22D-06  2  2     0.05
   3      1.03442235    -0.09764525   -39.01896013    -0.00000616    -0.00000001  0.57D-08  0.55D-09  3  3     0.05
   4      1.03442295    -0.09764551   -39.01896039    -0.00000026    -0.00000000  0.46D-10  0.70D-11  4  4     0.06

 Norm of t1 vector:      0.04437469      S-energy:    -0.00285942      T1 diagnostic:  0.00114323
 Norm of t2 vector:      0.18014948      P-energy:    -0.09478609
                                         Alpha-Beta:  -0.07377528
                                         Alpha-Alpha: -0.01911847
                                         Beta-Beta:   -0.00189234

 Spin contamination <S**2-Sz**2-Sz>     0.00033254
  Reference energy                    -38.921314884381
  RHF-RMP2 correlation energy          -0.097645505344
 !RHF-RMP2 energy                     -39.018960389724

 Starting UCCSD calculation

 ITER.      SQ.NORM     CORR.ENERGY   TOTAL ENERGY   ENERGY CHANGE        DEN1      VAR(S)    VAR(P)  DIIS     TIME
   1      1.04506986    -0.11082626   -39.03214114    -0.11082626    -0.00521952  0.29D-03  0.16D-02  1  1     0.08
   2      1.05214252    -0.11728429   -39.03859917    -0.00645803    -0.00022776  0.50D-04  0.65D-04  2  2     0.09
   3      1.05393369    -0.11802883   -39.03934371    -0.00074454    -0.00002278  0.67D-05  0.72D-05  3  3     0.09
   4      1.05463417    -0.11823252   -39.03954740    -0.00020369    -0.00000246  0.84D-06  0.75D-06  4  4     0.10
   5      1.05475913    -0.11823472   -39.03954960    -0.00000220    -0.00000023  0.82D-07  0.65D-07  5  5     0.11
   6      1.05478754    -0.11824447   -39.03955936    -0.00000975    -0.00000002  0.77D-08  0.59D-08  6  6     0.12
   7      1.05478839    -0.11824352   -39.03955841     0.00000095    -0.00000000  0.60D-09  0.59D-09  6  1     0.13

 Norm of t1 vector:      0.06940492      S-energy:    -0.00378064      T1 diagnostic:  0.00878184
                                                                       D1 diagnostic:  0.01487552
 Norm of t2 vector:      0.22354272      P-energy:    -0.11446288
                                         Alpha-Beta:  -0.09163347
                                         Alpha-Alpha: -0.02110645
                                         Beta-Beta:   -0.00172296

 Spin contamination <S**2-Sz**2-Sz>     0.00008999

 Memory could be reduced to 0.19 Mwords without degradation in triples


 RESULTS
 =======

  Reference energy                    -38.921314884381
  UCCSD singles energy                 -0.003780639459
  UCCSD pair energy                    -0.114462883036
  UCCSD correlation energy             -0.118243522496
  Triples (T) contribution             -0.001768145454
  Total correlation energy             -0.120011667949

  RHF-UCCSD energy                    -39.039558406876
  RHF-UCCSD[T] energy                 -39.041328109918
  RHF-UCCSD-T energy                  -39.041317935009
 !RHF-UCCSD(T) energy                 -39.041326552330

 Program statistics:

 Available memory in ccsd:               499999827
 Min. memory needed in ccsd:                 30262
 Max. memory used in ccsd:                   34741
 Max. memory used in cckext:                 60900 ( 7 integral passes)
 Max. memory used in cckint:                119608 ( 1 integral passes)



 **********************************************************************************************************************************
 DATASETS  * FILE   NREC   LENGTH (MB)   RECORD NAMES
              1      18       29.99       500      610      700      900      950      970     1000      129      960     1100   
                                          VAR    BASINP    GEOM    SYMINP    ZMAT    AOBASIS   BASIS     P2S    ABASIS      S 
                                         1400     1410     1200     1210     1080     1600     1650     1700   
                                           T        V       H0       H01     AOSYM     SMH    MOLCAS    OPER   

              2       4        2.80       700     1000      520     2100   
                                         GEOM     BASIS   MCVARS     RHF  

 PROGRAMS   *        TOTAL  UCCSD(T)   RHF-SCF       INT
 CPU TIMES  *         1.95      0.17      0.24      1.30
 REAL TIME  *         2.72 SEC
 DISK USED  *        33.48 MB (local),      301.60 MB (total)
 SF USED    *         1.76 MB
 GA USED    *         0.00 MB       (max)       0.00 MB       (current)
 **********************************************************************************************************************************
 SETTING BASIS          =    VTZ


 Recomputing integrals since basis changed


 Using spherical harmonics

 Library entry C      S cc-pVTZ              selected for orbital group  1
 Library entry C      P cc-pVTZ              selected for orbital group  1
 Library entry C      D cc-pVTZ              selected for orbital group  1
 Library entry C      F cc-pVTZ              selected for orbital group  1
 Library entry H      S cc-pVTZ              selected for orbital group  2
 Library entry H      P cc-pVTZ              selected for orbital group  2
 Library entry H      D cc-pVTZ              selected for orbital group  2


 PROGRAM * SEWARD (Integral evaluation for generally contracted gaussian basis sets)     Author: Roland Lindh, 1990

 Geometry written to block  1 of record 700


 Point group  C1  



 ATOMIC COORDINATES

 NR  ATOM    CHARGE       X              Y              Z

   1  C       6.00    0.000000000    0.000000000    0.196915131
   2  H       1.00    0.000000000    1.879306175   -0.590745394
   3  H       1.00    0.000000000   -1.879306175   -0.590745394

 Bond lengths in Bohr (Angstrom)

 1-2  2.037694973  1-3  2.037694973
     ( 1.078301742)     ( 1.078301742)

 Bond angles

  2-1-3  134.52063835

 NUCLEAR CHARGE:                    8
 NUMBER OF PRIMITIVE AOS:          81
 NUMBER OF SYMMETRY AOS:           74
 NUMBER OF CONTRACTIONS:           58   (   58A   )
 NUMBER OF CORE ORBITALS:           1   (    1A   )
 NUMBER OF VALENCE ORBITALS:        6   (    6A   )


 NUCLEAR REPULSION ENERGY    6.15506266

 EXTRA SYMMETRY OF AOS IN SYMMETRY 1:   1 1 1 1 2 1 1 2 1 1   2 1 1 1 2 2 1 1 1 2   2 1 1 2 1 1 2 2 1 1   1 1 1 2 1 1 2 1 1 1
                                        2 2 1 1 1 1 1 2 1 1   2 1 1 1 2 2 1 1

 Eigenvalues of metric

         1 0.155E-02 0.188E-02 0.654E-02 0.957E-02 0.127E-01 0.236E-01 0.341E-01 0.346E-01


 Contracted 2-electron integrals neglected if value below      1.0D-11
    6      0.210D-03      0.239D-04      -118.27244146    241.256784    0.00000    0.00000    0.02607    5    diag
    7      0.597D-04      0.330D-05      -118.27244148    241.256680    0.00000    0.00000    0.02576    6    diag
    8      0.102D-04      0.638D-06      -118.27244148    241.256616    0.00000    0.00000    0.02576    7    diag
    9      0.178D-05      0.142D-06      -118.27244148    241.256622   -0.00000    0.00000    0.02575    0    orth

 Final occupancy:  13

 !RHF STATE  1.1 Energy              -118.272441484077
 Nuclear energy                        82.63933231
 One-electron energy                 -321.54008469
 Two-electron energy                  120.62831090
 Virial quotient                       -1.00135653
 !RHF STATE  1.1 Dipole moment         -0.00000000     0.00000000     0.02574685
 Dipole moment /Debye                  -0.00000000     0.00000000     0.06543767

 Orbital energies:

         1.1          2.1          3.1          4.1          5.1          6.1          7.1          8.1          9.1         10.1
    -11.221692   -11.216201   -11.216154    -1.053234    -0.924432    -0.799462    -0.622849    -0.596589    -0.547799    -0.528742

        11.1         12.1         13.1         14.1         15.1
     -0.474159    -0.473527    -0.466890     0.183156     0.230290


 HOMO     13.1    -0.466890 =     -12.7047eV
 LUMO     14.1     0.183156 =       4.9839eV
 LUMO-HOMO         0.650046 =      17.6887eV


 **********************************************************************************************************************************
 DATASETS  * FILE   NREC   LENGTH (MB)   RECORD NAMES
              1      18       30.38       500      610      700      900      950      970     1000      129      960     1100   
                                          VAR    BASINP    GEOM    SYMINP    ZMAT    AOBASIS   BASIS     P2S    ABASIS      S 
                                         1400     1410     1200     1210     1080     1600     1650     1700   
                                           T        V       H0       H01     AOSYM     SMH    MOLCAS    OPER   

              2       4        3.06       700     1000      520     2100   
                                         GEOM     BASIS   MCVARS     RHF  

 PROGRAMS   *        TOTAL    HF-SCF       INT
 CPU TIMES  *         1.97      0.64      1.13
 REAL TIME  *         3.11 SEC
 DISK USED  *        33.93 MB (local),      361.89 MB (total)
 SF USED    *         0.03 MB
 GA USED    *         0.00 MB       (max)       0.00 MB       (current)
 **********************************************************************************************************************************


 PROGRAM * CCSD (Closed-shell coupled cluster)     Authors: C. Hampel, H.-J. Werner, 1991, M. Deegan, P.J. Knowles, 1992


 Convergence thresholds:  THRVAR = 1.00D-08  THRDEN = 1.00D-06

 CCSD(T)     terms to be evaluated (factor= 1.000)


 Number of core orbitals:           3 (   3 )
 Number of closed-shell orbitals:  10 (  10 )
 Number of external orbitals:      69 (  69 )

 Molecular orbitals read from record     2100.2  Type=RHF/CANONICAL (state 1.1)

 Number of N-1 electron functions:              10
 Number of N-2 electron functions:              55
 Number of singly external CSFs:               690
 Number of doubly external CSFs:            238395
 Total number of CSFs:                      239086

 Length of J-op  integral file:               0.00 MB
 Length of K-op  integral file:               0.47 MB
 Length of 3-ext integral record:             0.00 MB

 NUMBER OF SORTED TWO-ELECTRON INTEGRALS:      10200.     BUFFER LENGTH:  32768
 NUMBER OF SEGMENTS:   1  SEGMENT LENGTH:      10200      RECORD LENGTH: 524288

 Memory used in sort:       0.57 MW

 SORT1 READ      119167. AND WROTE        2288. INTEGRALS IN      1 RECORDS. CPU TIME:     0.07 SEC, REAL TIME:     0.07 SEC
 SORT2 READ       19125. AND WROTE       82621. INTEGRALS IN      8 RECORDS. CPU TIME:     0.00 SEC, REAL TIME:     0.01 SEC

 Node minimum:       10150.  Node maximum:       10506. integrals

 OPERATOR DM      FOR CENTER  0  COORDINATES:    0.000000    0.000000    0.000000


 **********************************************************************************************************************************
 DATASETS  * FILE   NREC   LENGTH (MB)   RECORD NAMES
              1      18       29.98       500      610      700      900      950      970     1001      129      960     1100   
                                          VAR    BASINP    GEOM    SYMINP    ZMAT    AOBASIS   BASIS     P2S    ABASIS      S 
                                         1400     1410     1200     1210     1080     1600     1650     1700   
                                           T        V       H0       H01     AOSYM     SMH    MOLCAS    OPER   

              2       5        2.77       700     1000      520     2100     1001   
                                         GEOM     BASIS   MCVARS     RHF     BASIS   

 PROGRAMS   *        TOTAL       INT   CCSD(T)    HF-SCF       INT
 CPU TIMES  *         2.58      0.89      0.06      0.14      1.23
 REAL TIME  *         3.53 SEC
 DISK USED  *        32.80 MB (local),      296.15 MB (total)
 SF USED    *         0.02 MB
 GA USED    *         0.00 MB       (max)       0.00 MB       (current)
 **********************************************************************************************************************************


 PROGRAM * RHF-SCF (CLOSED SHELL)       Authors: W. Meyer, H.-J. Werner


 NUMBER OF ELECTRONS:       1+    1-    SPACE SYMMETRY=1    SPIN SYMMETRY: Singlet 
 CONVERGENCE THRESHOLDS:    1.00E-05 (Density)    1.00E-07 (Energy)
 MAX. NUMBER OF ITERATIONS:       60
 INTERPOLATION TYPE:            DIIS
 INTERPOLATION STEPS:              2 (START)      1 (STEP)
 LEVEL SHIFTS:                  0.00 (CLOSED)  0.00 (OPEN) 



 Molecular orbitals read from record     2100.2  Type=RHF/CANONICAL (state 1.1)

 Present basis size:       28
 Previous basis size:      10
 Previous occupation:       1
 Previous closed-shells:    1
 Present occupation:        1
 Present closed-shells:     1
 Wavefunction symmetry:    1   Singlet 

 Orbital overlap <old|new>:  < 1.1| 1.1> = 0.999913


 Molecular orbital dump at record        2101.2

 ITERATION    DDIFF          GRAD             ENERGY        2-EL.EN.            DIPOLE MOMENTS         DIIS   ORB.
    1      0.000D+00      0.000D+00        -1.13161919      1.317236    0.00000   -0.00000   -0.00000    0    start
    2      0.000D+00      0.784D-02        -1.13292919      1.319175    0.00000   -0.00000   -0.00000    1    diag
    3      0.118D-01      0.109D-02        -1.13296514      1.317653    0.00000    0.00000    0.00000    2    diag
    4      0.202D-02      0.663D-04        -1.13296546      1.317198    0.00000    0.00000    0.00000    3    diag
    5      0.974D-04      0.295D-05        -1.13296546      1.317190    0.00000    0.00000    0.00000    4    diag
    6      0.461D-05      0.175D-06        -1.13296546      1.317190    0.00000    0.00000    0.00000    0    orth

 Final occupancy:   1

 !RHF STATE  1.1 Energy                -1.132965462614
 Nuclear energy                         0.71483772
 One-electron energy                   -2.50639810
 Two-electron energy                    0.65859491
 Virial quotient                       -1.00823480
 !RHF STATE  1.1 Dipole moment          0.00000000     0.00000000     0.00000000
 Dipole moment /Debye                   0.00000000     0.00000000     0.00000000

 Orbital energies:

         1.1          2.1          3.1
     -0.594604     0.167219     0.305027


 HOMO      1.1    -0.594604 =     -16.1800eV
 LUMO      2.1     0.167219 =       4.5502eV
 LUMO-HOMO         0.761823 =      20.7303eV


 **********************************************************************************************************************************
 DATASETS  * FILE   NREC   LENGTH (MB)   RECORD NAMES
              1      18       29.98       500      610      700      900      950      970     1001      129      960     1100   
                                          VAR    BASINP    GEOM    SYMINP    ZMAT    AOBASIS   BASIS     P2S    ABASIS      S 
                                         1400     1410     1200     1210     1080     1600     1650     1700   
                                           T        V       H0       H01     AOSYM     SMH    MOLCAS    OPER   

              2       6        5.28       700     1000      520     2100     1001     2101   
                                         GEOM     BASIS   MCVARS     RHF     BASIS     RHF  

 PROGRAMS   *        TOTAL    HF-SCF       INT   CCSD(T)    HF-SCF       INT
 CPU TIMES  *         2.72      0.14      0.89      0.06      0.14      1.23
 REAL TIME  *         3.72 SEC
 DISK USED  *        35.34 MB (local),      316.51 MB (total)
 SF USED    *         0.02 MB
 GA USED    *         0.00 MB       (max)       0.00 MB       (current)
 **********************************************************************************************************************************
 AO integral compression algorithm  1   Integral accuracy      1.0D-11

     5.243 MB (compressed) written to integral file ( 39.8%)

     Node minimum: 0.524 MB, node maximum: 1.049 MB

--


 PROGRAM * CCSD (Closed-shell coupled cluster)     Authors: C. Hampel, H.-J. Werner, 1991, M. Deegan, P.J. Knowles, 1992


 Convergence thresholds:  THRVAR = 1.00D-08  THRDEN = 1.00D-06

 CCSD(T)     terms to be evaluated (factor= 1.000)


 Number of closed-shell orbitals:   1 (   1 )
 Number of external orbitals:      27 (  27 )

 Molecular orbitals read from record     2101.2  Type=RHF/CANONICAL (state 1.1)

 Number of N-1 electron functions:               1
 Number of N-2 electron functions:               1
 Number of singly external CSFs:                27
 Number of doubly external CSFs:               378
 Total number of CSFs:                         406

 Length of J-op  integral file:               0.00 MB
 Length of K-op  integral file:               0.06 MB
 Length of 3-ext integral record:             0.00 MB

 Integral transformation finished. Total CPU:   0.00 sec, npass=  1  Memory used:   0.10 MW

 Reference energy:                     -1.13296546

 MP2 singlet pair energy:              -0.03167696
 MP2 triplet pair energy:               0.00000000
 MP2 correlation energy:               -0.03167696
 MP2 total energy:                     -1.16464242

 SCS-MP2 correlation energy:           -0.03801235   (PS=  1.200000  PT=  0.333333)
 SCS-MP2 total energy:                 -1.17097781

 ITER.      SQ.NORM     CORR.ENERGY   TOTAL ENERGY   ENERGY CHANGE        DEN1      VAR(S)    VAR(P)  DIIS     TIME  TIME/IT
   1      1.01469878    -0.03850361    -1.17146908    -0.00682666    -0.00489675  0.41D-04  0.51D-03  1  1     0.02     0.00

 NUMBER OF SORTED TWO-ELECTRON INTEGRALS:     182328.     BUFFER LENGTH:  32768
 NUMBER OF SEGMENTS:   1  SEGMENT LENGTH:     182328      RECORD LENGTH: 524288

 Memory used in sort:       0.74 MW
0018597  0.12D-06  0.42D-06  3  3     0.02     0.00
   4      1.01821785    -0.03936846    -1.17233392    -0.00000518    -0.00001643  0.32D-08  0.96D-08  4  4     0.02     0.00
   5      1.01822240    -0.03936748    -1.17233294     0.00000098    -0.00000203  0.24D-09  0.97D-10  5  5     0.03     0.00
   6      1.01822229    -0.03936757    -1.17233303    -0.00000009     0.00000009  0.12D-10  0.32D-11  6  6     0.03     0.00

 Norm of t1 vector:      0.01119812      S-energy:    -0.00000003      T1 diagnostic:  0.00559906
                                                                       D1 diagnostic:  0.00791827

 Doubles amplitudes (print threshold =  0.500E-01):

         I         J         SYM. A    SYM. B    A         B      T(IJ, AB)

         1         1         1         1         3         3     -0.05633533


 RESULTS
 =======

  Reference energy                     -1.132965462614
  CCSD singlet pair energy             -0.039367533911
  CCSD triplet pair energy              0.000000000000
  CCSD correlation energy              -0.039367567044

  Triples (T) contribution              0.000000000000
  Total correlation energy             -0.039367567044

  CCSD total energy                    -1.172333029658
 !CCSD(T) total energy                 -1.172333029658

 Timing summary (sec):

 STEP                 CPU(USER)    SYS     CPU(TOT)    WALL
 CCSD iterations         0.03      0.00      0.03      0.03

 Program statistics:

 Available memory in ccsd:               499999994
 Min. memory needed in ccsd:                 11905
 Max. memory used in ccsd:                   11905
 Max. memory used in cckext:                 37844 ( 6 integral passes)


 SORT1 READ     1852866. AND WROTE       86122. INTEGRALS IN      1 RECORDS. CPU TIME:     0.03 SEC, REAL TIME:     0.04 SEC
*******
 DATASETS  * FILE   NREC   LENGTH (MB)   RECORD NAMES
              1      19       30.09       500      610      700      900      950      970     1001      129      960     1100   
                                          VAR    BASINP    GEOM    SYMINP    ZMAT    AOBASIS   BASIS     P2S    ABASIS      S 
                                         1400     1410     1200     1210     1080     1600     1650     1700     1380   
                                           T        V       H0       H01     AOSYM     SMH    MOLCAS    OPER     JKOP   

              2       6        5.28       700     1000      520     2100     1001     2101   
                                         GEOM     BASIS   MCVARS     RHF     BASIS     RHF  

 PROGRAMS   *        TOTAL   CCSD(T)    HF-SCF       INT   CCSD(T)    HF-SCF       INT
 CPU TIMES  *         2.83      0.07      0.14      0.89      0.06      0.14      1.23
 REAL TIME  *         3.84 SEC
 DISK USED  *        35.48 MB (local),      317.08 MB (total)
 SF USED    *         0.21 MB
 GA USED    *         0.00 MB       (max)       0.00 MB       (current)
 **********************************************************************************************************************************
 SETTING BASIS          =    VQZ


 Recomputing integrals since basis changed


 Using spherical harmonics

 Library entry H      S cc-pVQZ              selected for orbital group  1
 Library entry H      P cc-pVQZ              selected for orbital group  1
 Library entry H      D cc-pVQZ              selected for orbital group  1
 Library entry H      F cc-pVQZ              selected for orbital group  1


 PROGRAM * SEWARD (Integral evaluation for generally contracted gaussian basis sets)     Author: Roland Lindh, 1990

 Geometry written to block  1 of record 700


 Point group  C1  



 ATOMIC COORDINATES

 NR  ATOM    CHARGE       X              Y              Z

   1  H       1.00    0.000000000    0.000000000    0.699459448
   2  H       1.00    0.000000000    0.000000000   -0.699459448

 Bond lengths in Bohr (Angstrom)

 1-2  1.398918897
     ( 0.740276000)

 NUCLEAR CHARGE:                    2
 NUMBER OF PRIMITIVE AOS:          74
 NUMBER OF SYMMETRY AOS:           64
 NUMBER OF CONTRACTIONS:           60   (   60A   )
 NUMBER OF CORE ORBITALS:           0   (    0A   )
 NUMBER OF VALENCE ORBITALS:        2   (    2A   )


 NUCLEAR REPULSION ENERGY    0.71483772

 EXTRA SYMMETRY OF AOS IN SYMMETRY 1:   1 1 1 1 2 3 1 2 3 1   2 3 1 1 4 2 5 3 1 4   2 5 3 2 3 1 6 4 7 5   1 1 1 1 2 3 1 2 3 1
                                        2 3 1 1 4 2 5 3 1 4   2 5 3 2 3 1 6 4 7 5

 Eigenvalues of metric

         1 0.202E-03 0.107E-02 0.108E-02 0.530E-02 0.735E-02 0.735E-02 0.138E-01 0.271E-01


 Contracted 2-electron integrals neglected if value below      1.0D-11
 SORT2 READ      682461. AND WROTE     1464616. INTEGRALS IN     32 RECORDS. CPU TIME:     0.04 SEC, REAL TIME:     0.06 SEC

 Node minimum:      182328.  Node maximum:      183826. integrals

 OPERATOR DM      FOR CENTER  0  COORDINATES:    0.000000    0.000000    0.000000


 **********************************************************************************************************************************
 DATASETS  * FILE   NREC   LENGTH (MB)   RECORD NAMES
              1      18       30.11       500      610      700      900      950      970     1001      129      960     1100   
                                          VAR    BASINP    GEOM    SYMINP    ZMAT    AOBASIS   BASIS     P2S    ABASIS      S 
                                         1400     1410     1200     1210     1080     1600     1650     1700   
                                           T        V       H0       H01     AOSYM     SMH    MOLCAS    OPER   

              2       5        2.82       700     1000      520     2100     1001   
                                         GEOM     BASIS   MCVARS     RHF     BASIS   

 PROGRAMS   *        TOTAL       INT  UCCSD(T)   RHF-SCF       INT
 CPU TIMES  *         3.06      1.10      0.17      0.24      1.30
 REAL TIME  *         4.01 SEC
 DISK USED  *        33.48 MB (local),      305.22 MB (total)
 SF USED    *         1.76 MB
 GA USED    *         0.00 MB       (max)       0.00 MB       (current)
 **********************************************************************************************************************************


 PROGRAM * RHF-SCF (OPEN SHELL)       Authors: W. Meyer, H.-J. Werner


 NUMBER OF ELECTRONS:       5+    3-    SPACE SYMMETRY=1    SPIN SYMMETRY: Triplet 
 CONVERGENCE THRESHOLDS:    1.00E-05 (Density)    1.00E-07 (Energy)
 MAX. NUMBER OF ITERATIONS:       60
 INTERPOLATION TYPE:            DIIS
 INTERPOLATION STEPS:              2 (START)      1 (STEP)
 LEVEL SHIFTS:                 -0.60 (CLOSED) -0.30 (OPEN) 



 Molecular orbitals read from record     2100.2  Type=RHF/CANONICAL (state 1.1)

 Present basis size:       58
 Previous basis size:      24
 Previous occupation:       5
 Previous closed-shells:    3
 Previous core-orbitals:    1
 Present occupation:        5
 Present closed-shells:     3
 Present core-orbitals:     1
 Wavefunction symmetry:    1   Triplet 

 Orbital overlap <old|new>:  < 1.1| 1.1> = 0.999999   < 2.1| 2.1> = 0.999935   < 3.1| 3.1> = 0.999903   < 4.1| 4.1> = 0.999774
                             < 5.1| 5.1> = 0.999690


 Molecular orbital dump at record        2101.2

 ITERATION    DDIFF          GRAD             ENERGY        2-EL.EN.            DIPOLE MOMENTS         DIIS   ORB.
    1      0.000D+00      0.000D+00       -38.92883790     37.645366   -0.00000   -0.00000   -0.21033    0    start
    2      0.000D+00      0.447D-02       -38.93177715     37.663091   -0.00000   -0.00000   -0.21683    1    diag,B
    3      0.818D-02      0.101D-02       -38.93199348     37.652726   -0.00000   -0.00000   -0.22128    2    diag,B
    4      0.227D-02      0.141D-03       -38.93200489     37.646401   -0.00000    0.00000   -0.22320    3    diag,B
    5      0.267D-03      0.427D-04       -38.93200642     37.644258   -0.00000    0.00000   -0.22408    4    diag,B
    6      0.106D-03      0.925D-05       -38.93200652     37.644127   -0.00000    0.00000   -0.22429    5    diag,B
    7      0.197D-04      0.336D-05       -38.93200653     37.644176   -0.00000    0.00000   -0.22441    6    diag,B
    8      0.106D-04      0.782D-06       -38.93200653     37.644182   -0.00000   -0.00000   -0.22445    7    orth
    9      0.316D-05      0.209D-06       -38.93200653     37.644181   -0.00000    0.00000   -0.22446    0    orth

 Final alpha occupancy:   5
 Final beta  occupancy:   3

 !RHF STATE  1.1 Energy               -38.932006531941
 Nuclear energy                         6.15506266
 One-electron energy                  -63.90915980
 Two-electron energy                   18.82209061
 Virial quotient                       -1.00106035
 !RHF STATE  1.1 Dipole moment         -0.00000000     0.00000000    -0.22446084
 Dipole moment /Debye                  -0.00000000     0.00000000    -0.57048517

 Orbital energies:

         1.1          2.1          3.1          4.1          5.1          6.1          7.1
    -11.244168    -0.851554    -0.603352    -0.465115    -0.401715     0.157256     0.208857


 HOMO      5.1    -0.401715 =     -10.9312eV
 LUMO      6.1     0.157256 =       4.2792eV
 LUMO-HOMO         0.558972 =      15.2104eV


 **********************************************************************************************************************************
 DATASETS  * FILE   NREC   LENGTH (MB)   RECORD NAMES
              1      18       30.11       500      610      700      900      950      970     1001      129      960     1100   
                                          VAR    BASINP    GEOM    SYMINP    ZMAT    AOBASIS   BASIS     P2S    ABASIS      S 
                                         1400     1410     1200     1210     1080     1600     1650     1700   
                                           T        V       H0       H01     AOSYM     SMH    MOLCAS    OPER   

              2       6        5.40       700     1000      520     2100     1001     2101   
                                         GEOM     BASIS   MCVARS     RHF     BASIS     RHF  

 PROGRAMS   *        TOTAL   RHF-SCF       INT  UCCSD(T)   RHF-SCF       INT
 CPU TIMES  *         3.41      0.33      1.10      0.17      0.24      1.30
 REAL TIME  *         4.45 SEC
 DISK USED  *        35.99 MB (local),      325.32 MB (total)
 SF USED    *         1.76 MB
 GA USED    *         0.00 MB       (max)       0.00 MB       (current)
 **********************************************************************************************************************************


 PROGRAM * CCSD (Unrestricted open-shell coupled cluster)     Authors: C. Hampel, H.-J. Werner, 1991, M. Deegan, P.J. Knowles, 1992


 Convergence thresholds:  THRVAR = 1.00D-08  THRDEN = 1.00D-06

 CCSD(T)     terms to be evaluated (factor= 1.000)


 Number of core orbitals:           1 (   1 )
 Number of closed-shell orbitals:   2 (   2 )
 Number of active  orbitals:        2 (   2 )
 Number of external orbitals:      53 (  53 )

 Memory could be reduced to 1.83 Mwords without degradation in triples

 Number of N-1 electron functions:               6
 Number of N-2 electron functions:              15
 Number of singly external CSFs:               330
 Number of doubly external CSFs:             34595
 Total number of CSFs:                       34925

 Molecular orbitals read from record     2101.2  Type=RHF/CANONICAL (state 1.1)

 Integral transformation finished. Total CPU:   0.04 sec, npass=  1  Memory used:   0.67 MW

 Starting RMP2 calculation, locsing= 0

1         16.1         17.1         18.1         19.1
     -0.574014    -0.565606    -0.512671    -0.493087    -0.467897    -0.460458    -0.454962     0.184146     0.204537


 HOMO     17.1    -0.454962 =     -12.3801eV
 LUMO     18.1     0.184146 =       5.0109eV
 LUMO-HOMO         0.639108 =      17.3910eV


 **********************************************************************************************************************************
 DATASETS  * FILE   NREC   LENGTH (MB)   RECORD NAMES
              1      18       30.61       500      610      700      900      950      970     1000      129      960     1100   
                                          VAR    BASINP    GEOM    SYMINP    ZMAT    AOBASIS   BASIS     P2S    ABASIS      S 
                                         1400     1410     1200     1210     1080     1600     1650     1700   
                                           T        V       H0       H01     AOSYM     SMH    MOLCAS    OPER   

              2       4        3.21       700     1000      520     2100   
                                         GEOM     BASIS   MCVARS     RHF  

 PROGRAMS   *        TOTAL    HF-SCF       INT
 CPU TIMES  *         3.21      0.68      2.28
 REAL TIME  *         4.52 SEC
 DISK USED  *        34.55 MB (local),      537.08 MB (total)
 SF USED    *         0.05 MB
 GA USED    *         0.00 MB       (max)       0.00 MB       (current)
 **********************************************************************************************************************************
 ITER.      SQ.NORM     CORR.ENERGY   TOTAL ENERGY   ENERGY CHANGE        DEN1      VAR(S)    VAR(P)  DIIS     TIME
   1      1.03902825    -0.12266765   -39.05467418    -0.12266765    -0.00055191  0.24D-04  0.19D-03  1  1     0.07
   2      1.03956355    -0.12327328   -39.05527981    -0.00060563    -0.00000142  0.40D-06  0.37D-06  2  2     0.07
   3      1.03958075    -0.12328409   -39.05529063    -0.00001081    -0.00000001  0.77D-08  0.11D-08  3  3     0.07
   4      1.03958146    -0.12328435   -39.05529089    -0.00000026    -0.00000000  0.96D-10  0.11D-10  4  4     0.08

 Norm of t1 vector:      0.04550070      S-energy:    -0.00300895      T1 diagnostic:  0.00122777
 Norm of t2 vector:      0.19367794      P-energy:    -0.12027541
                                         Alpha-Beta:  -0.09392236
                                         Alpha-Alpha: -0.02408432
                                         Beta-Beta:   -0.00226873
RHF     BASIS   

 PROGRAMS   *        TOTAL       INT   CCSD(T)    HF-SCF       INT   CCSD(T)    HF-SCF       INT
 CPU TIMES  *         3.54      0.70      0.07      0.14      0.89      0.06      0.14      1.23
 REAL TIME  *         4.64 SEC
 DISK USED  *        35.48 MB (local),      319.63 MB (total)
 SF USED    *         0.21 MB
 GA USED    *         0.00 MB       (max)       0.00 MB       (current)
 **********************************************************************************************************************************

 Spin contamination <S**2-Sz**2-Sz>     0.00035724
  Reference energy                    -38.932006531941
  RHF-RMP2 correlation energy          -0.123284354797
 !RHF-RMP2 energy                     -39.055290886738

 Starting UCCSD calculation

 ITER.      SQ.NORM     CORR.ENERGY   TOTAL ENERGY   ENERGY CHANGE        DEN1      VAR(S)    VAR(P)  DIIS     TIME
   1      1.04937885    -0.13514626   -39.06715280    -0.13514626    -0.00507755  0.37D-03  0.15D-02  1  1     0.15
        ENERGY        2-EL.EN.            DIPOLE MOMENTS         DIIS   ORB.
    1      0.000D+00      0.000D+00        -1.13332901      1.317157    0.00000    0.00000    0.00000    0    start
   2      1.05643552    -0.14127695   -39.07328348    -0.00613068    -0.00023985  0.62D-04  0.62D-04  2  2     0.17
   3      1.05831303    -0.14204210   -39.07404863    -0.00076515    -0.00002748  0.11D-04  0.69D-05  3  3     0.20
  4      0.315D-03      0.226D-04        -1.13346449      1.317382    0.00000    0.00000    0.00000    3    diag
   4      1.05908080    -0.14226598   -39.07427251    -0.00022387    -0.00000381  0.14D-05  0.10D-05  4  4     0.23
   5      1.05929292    -0.14229611   -39.07430264    -0.00003013    -0.00000040  0.16D-06  0.10D-06  5  5     0.26
Final occupancy:   1

 !RHF STATE  1.1 Energy                -1.133464493030
 Nuclear energy                         0.71483772
 One-electron energy                   -2.50699852
 Two-electron energy                    0.65869630
 Virial quotient                       -1.00645865
 !RHF STATE  1.1 Dipole moment         -0.00000000     0.00000000    -0.00000000
 Dipole moment /Debye                  -0.00000000     0.00000000    -0.00000000

 Orbital energies:

         1.1          2.1          3.1
     -0.594803     0.147714     0.231526


 HOMO      1.1    -0.594803 =     -16.1854eV
 LUMO      2.1     0.147714 =       4.0195eV
 LUMO-HOMO         0.742517 =      20.2049eV


 **********************************************************************************************************************************
 DATASETS  * FILE   NREC   LENGTH (MB)   RECORD NAMES
              1      18       30.10       500      610      700      900      950      970     1002      129      960     1100   
                                          VAR    BASINP    GEOM    SYMINP    ZMAT    AOBASIS   BASIS     P2S    ABASIS      S 
                                         1400     1410     1200     1210     1080     1600     1650     1700   
                                           T        V       H0       H01     AOSYM     SMH    MOLCAS    OPER   

              2       8        7.87       700     1000      520     2100     1001     2101     1002     2102   
                                         GEOM     BASIS   MCVARS     RHF     BASIS     RHF     BASIS     RHF  

 PROGRAMS   *        TOTAL    HF-SCF       INT   CCSD(T)    HF-SCF       INT   CCSD(T)    HF-SCF       INT
 CPU TIMES  *         3.72      0.18      0.70      0.07      0.14      0.89      0.06      0.14      1.23
 REAL TIME  *         4.86 SEC
 DISK USED  *        38.20 MB (local),      341.61 MB (total)
 SF USED    *         0.21 MB
 GA USED    *         0.00 MB       (max)       0.00 MB       (current)
 **********************************************************************************************************************************
   6      1.05933508    -0.14229994   -39.07430647    -0.00000383    -0.00000004  0.18D-07  0.10D-07  6  6     0.28
memory="0.0" sf="0.21" df="305.61" eaf="36.0" ga="0.0"/>
  </jobstep><!--
 Molecular orbitals read from record     2102.2  Type=RHF/CANONICAL (state 1.1)
 Occupation numbers read from record     2102.2  Type=RHF/RHF (state 1.1)
 Orbital energies read from record       2102.2  Type=RHF/CANONICAL (state 1.1)
 Redundancy group numbers read from rec  2102.2  Type=RHF/RHF (state 1.1)

 HF/cc-pVQZ energy=     -1.133464493030

          HF-SCF         CCSD(T)          HF-SCF         CCSD(T)          HF-SCF
     -1.13346449     -1.17233303     -1.13296546     -1.16338250     -1.12870326
 **********************************************************************************************************************************
   8      1.05934266    -0.14230142   -39.07430795    -0.00000048    -0.00000000  0.18D-09  0.12D-09  6  2     0.34

 Norm of t1 vector:      0.07146911      S-energy:    -0.00382169      T1 diagnostic:  0.01080400
                                                                       D1 diagnostic:  0.01819422
 Norm of t2 vector:      0.23288371      P-energy:    -0.13847973
                                         Alpha-Beta:  -0.11031179
                                         Alpha-Alpha: -0.02610373
                                         Beta-Beta:   -0.00206421

 Spin contamination <S**2-Sz**2-Sz>     0.00012721

 Memory could be reduced to 2.03 Mwords without degradation in triples


 RESULTS
 =======

  Reference energy                    -38.932006531941
  UCCSD singles energy                 -0.003821688008
  UCCSD pair energy                    -0.138479728688
  UCCSD correlation energy             -0.142301416695
  Triples (T) contribution             -0.003473300398
  Total correlation energy             -0.145774717094

  RHF-UCCSD energy                    -39.074307948636
  RHF-UCCSD[T] energy                 -39.077805818195
  RHF-UCCSD-T energy                  -39.077764213153
 !RHF-UCCSD(T) energy                 -39.077781249035

 Program statistics:

 Available memory in ccsd:               499999822
 Min. memory needed in ccsd:                188906
 Max. memory used in ccsd:                  221265
 Max. memory used in cckext:                184966 ( 8 integral passes)
 Max. memory used in cckint:                666532 ( 1 integral passes)



 **********************************************************************************************************************************
 DATASETS  * FILE   NREC   LENGTH (MB)   RECORD NAMES
              1      18       30.11       500      610      700      900      950      970     1001      129      960     1100   
                                          VAR    BASINP    GEOM    SYMINP    ZMAT    AOBASIS   BASIS     P2S    ABASIS      S 
                                         1400     1410     1200     1210     1080     1600     1650     1700   
                                           T        V       H0       H01     AOSYM     SMH    MOLCAS    OPER   

              2       6        5.40       700     1000      520     2100     1001     2101   
                                         GEOM     BASIS   MCVARS     RHF     BASIS     RHF  

 PROGRAMS   *        TOTAL  UCCSD(T)   RHF-SCF       INT  UCCSD(T)   RHF-SCF       INT
 CPU TIMES  *         4.09      0.65      0.33      1.10      0.17      0.24      1.30
 REAL TIME  *         5.32 SEC
 DISK USED  *        39.95 MB (local),      357.00 MB (total)
 SF USED    *        21.44 MB
 GA USED    *         0.00 MB       (max)       0.00 MB       (current)
 **********************************************************************************************************************************
 SETTING BASIS          =    VQZ


 Recomputing integrals since basis changed


 Using spherical harmonics

 Library entry C      S cc-pVQZ              selected for orbital group  1
 Library entry C      P cc-pVQZ              selected for orbital group  1
 Library entry C      D cc-pVQZ              selected for orbital group  1
 Library entry C      F cc-pVQZ              selected for orbital group  1
 Library entry C      G cc-pVQZ              selected for orbital group  1
 Library entry H      S cc-pVQZ              selected for orbital group  2
 Library entry H      P cc-pVQZ              selected for orbital group  2
 Library entry H      D cc-pVQZ              selected for orbital group  2
 Library entry H      F cc-pVQZ              selected for orbital group  2


 PROGRAM * SEWARD (Integral evaluation for generally contracted gaussian basis sets)     Author: Roland Lindh, 1990

 Geometry written to block  1 of record 700


 Point group  C1  



 ATOMIC COORDINATES

 NR  ATOM    CHARGE       X              Y              Z

   1  C       6.00    0.000000000    0.000000000    0.196915131
   2  H       1.00    0.000000000    1.879306175   -0.590745394
   3  H       1.00    0.000000000   -1.879306175   -0.590745394

 Bond lengths in Bohr (Angstrom)

 1-2  2.037694973  1-3  2.037694973
     ( 1.078301742)     ( 1.078301742)

 Bond angles

  2-1-3  134.52063835

 NUCLEAR CHARGE:                    8
 NUMBER OF PRIMITIVE AOS:         157
 NUMBER OF SYMMETRY AOS:          132
 NUMBER OF CONTRACTIONS:          115   (  115A   )
 NUMBER OF CORE ORBITALS:           1   (    1A   )
 NUMBER OF VALENCE ORBITALS:        6   (    6A   )


 NUCLEAR REPULSION ENERGY    6.15506266

 EXTRA SYMMETRY OF AOS IN SYMMETRY 1:   1 1 1 1 1 2 1 1 2 1   1 2 1 1 2 1 1 1 2 2   1 1 1 2 2 1 1 1 2 2   1 1 2 1 1 2 2 1 1 2
                                        1 1 2 2 1 1 1 2 2 1   1 1 2 2 1 1 1 1 1 2   1 1 2 1 1 2 1 1 1 2   2 1 1 1 2 2 1 1 2 1
                                        1 2 2 1 1 1 1 1 1 2   1 1 2 1 1 2 1 1 1 2   2 1 1 1 2 2 1 1 2 1   1 2 2 1 1

 Eigenvalues of metric

         1 0.208E-03 0.272E-03 0.482E-03 0.178E-02 0.190E-02 0.469E-02 0.483E-02 0.522E-02


 Contracted 2-electron integrals neglected if value below      1.0D-11
   6      1.19447759    -0.49493165  -118.76737314     0.00000121    -0.00000425  0.38D-09  0.32D-08  6  6     2.30     0.35
 AO integral compression algorithm  1   Integral accuracy      1.0D-11

     61.080 MB (compressed) written to integral file ( 28.3%)

     Node minimum: 3.408 MB, node maximum: 11.534 MB


 NUMBER OF SORTED TWO-ELECTRON INTEGRALS:    2778888.     BUFFER LENGTH:  32768
 NUMBER OF SEGMENTS:   1  SEGMENT LENGTH:    2778888      RECORD LENGTH: 524288

 Memory used in sort:       3.34 MW

 SORT1 READ    27102626. AND WROTE     1280555. INTEGRALS IN      4 RECORDS. CPU TIME:     0.40 SEC, REAL TIME:     0.44 SEC
 Norm of t1 vector:      0.03881643      S-energy:    -0.00000002      T1 diagnostic:  0.00613742
                                                                       D1 diagnostic:  0.01112806
 SORT2 READ    10277945. AND WROTE    22247785. INTEGRALS IN    336 RECORDS. CPU TIME:     0.15 SEC, REAL TIME:     0.18 SEC

 Node minimum:     2778055.  Node maximum:     2783892. integrals

 OPERATOR DM      FOR CENTER  0  COORDINATES:    0.000000    0.000000    0.000000


 **********************************************************************************************************************************
 DATASETS  * FILE   NREC   LENGTH (MB)   RECORD NAMES
              1      18       30.49       500      610      700      900      950      970     1002      129      960     1100   
                                          VAR    BASINP    GEOM    SYMINP    ZMAT    AOBASIS   BASIS     P2S    ABASIS      S 
                                         1400     1410     1200     1210     1080     1600     1650     1700   
                                           T        V       H0       H01     AOSYM     SMH    MOLCAS    OPER   

              2       7        5.47       700     1000      520     2100     1001     2101     1002   
                                         GEOM     BASIS   MCVARS     RHF     BASIS     RHF     BASIS   

 PROGRAMS   *        TOTAL       INT  UCCSD(T)   RHF-SCF       INT  UCCSD(T)   RHF-SCF       INT
 CPU TIMES  *         5.62      1.51      0.65      0.33      1.10      0.17      0.24      1.30
 REAL TIME  *         7.01 SEC
 DISK USED  *        39.95 MB (local),      506.50 MB (total)
 SF USED    *        21.44 MB
 GA USED    *         0.00 MB       (max)       0.00 MB       (current)
 **********************************************************************************************************************************


 PROGRAM * RHF-SCF (OPEN SHELL)       Authors: W. Meyer, H.-J. Werner


 NUMBER OF ELECTRONS:       5+    3-    SPACE SYMMETRY=1    SPIN SYMMETRY: Triplet 
 CONVERGENCE THRESHOLDS:    1.00E-05 (Density)    1.00E-07 (Energy)
 MAX. NUMBER OF ITERATIONS:       60
 INTERPOLATION TYPE:            DIIS
 INTERPOLATION STEPS:              2 (START)      1 (STEP)
 LEVEL SHIFTS:                 -0.60 (CLOSED) -0.30 (OPEN) 



 Molecular orbitals read from record     2101.2  Type=RHF/CANONICAL (state 1.1)

 Present basis size:      115
 Previous basis size:      58
 Previous occupation:       5
 Previous closed-shells:    3
 Previous core-orbitals:    1
 Present occupation:        5
 Present closed-shells:     3
 Present core-orbitals:     1
 Wavefunction symmetry:    1   Triplet 

 Orbital overlap <old|new>:  < 1.1| 1.1> = 0.999999   < 2.1| 2.1> = 0.999992   < 3.1| 3.1> = 0.999986   < 4.1| 4.1> = 0.999957
                             < 5.1| 5.1> = 0.999933


 Molecular orbital dump at record        2102.2

 ITERATION    DDIFF          GRAD             ENERGY        2-EL.EN.            DIPOLE MOMENTS         DIIS   ORB.
    1      0.000D+00      0.000D+00       -38.93417455     37.644561   -0.00000   -0.00000   -0.22441    0    start
    2      0.000D+00      0.134D-02       -38.93444128     37.644941   -0.00000   -0.00000   -0.22409    1    diag,B
    3      0.265D-02      0.169D-03       -38.93445657     37.642113   -0.00000   -0.00000   -0.22406    2    diag,B
    4      0.922D-03      0.376D-04       -38.93445858     37.640621   -0.00000   -0.00000   -0.22424    3    diag,B
    5      0.384D-03      0.106D-04       -38.93445886     37.640273   -0.00000   -0.00000   -0.22448    4    diag,B
    6      0.712D-04      0.410D-05       -38.93445891     37.640180   -0.00000   -0.00000   -0.22469    5    diag,B
    7      0.139D-04      0.795D-06       -38.93445891     37.640165   -0.00000   -0.00000   -0.22474    6    diag,B
    8      0.359D-05      0.261D-06       -38.93445891     37.640164   -0.00000   -0.00000   -0.22475    0    orth

 Final alpha occupancy:   5
 Final beta  occupancy:   3

 !RHF STATE  1.1 Energy               -38.934458912579
 Nuclear energy                         6.15506266
 One-electron energy                  -63.90960343
 Two-electron energy                   18.82008186
 Virial quotient                       -1.00080906
 !RHF STATE  1.1 Dipole moment         -0.00000000    -0.00000000    -0.22474699
 Dipole moment /Debye                  -0.00000000    -0.00000000    -0.57121246

 Orbital energies:

         1.1          2.1          3.1          4.1          5.1          6.1          7.1
    -11.244431    -0.852159    -0.604233    -0.465789    -0.402004     0.130170     0.178661


 HOMO      5.1    -0.402004 =     -10.9391eV
 LUMO      6.1     0.130170 =       3.5421eV
 LUMO-HOMO         0.532174 =      14.4812eV


 **********************************************************************************************************************************
 DATASETS  * FILE   NREC   LENGTH (MB)   RECORD NAMES
              1      18       30.49       500      610      700      900      950      970     1002      129      960     1100   
                                          VAR    BASINP    GEOM    SYMINP    ZMAT    AOBASIS   BASIS     P2S    ABASIS      S 
                                         1400     1410     1200     1210     1080     1600     1650     1700   
                                           T        V       H0       H01     AOSYM     SMH    MOLCAS    OPER   

              2       8        8.33       700     1000      520     2100     1001     2101     1002     2102   
                                         GEOM     BASIS   MCVARS     RHF     BASIS     RHF     BASIS     RHF  

 PROGRAMS   *        TOTAL   RHF-SCF       INT  UCCSD(T)   RHF-SCF       INT  UCCSD(T)   RHF-SCF       INT
 CPU TIMES  *         6.23      0.60      1.51      0.65      0.33      1.10      0.17      0.24      1.30
 REAL TIME  *         7.70 SEC
 DISK USED  *        40.47 MB (local),      510.66 MB (total)
 SF USED    *        21.44 MB
 GA USED    *         0.00 MB       (max)       0.00 MB       (current)
 **********************************************************************************************************************************
 Molecular orbitals read from record     2102.2  Type=RHF/CANONICAL (state 1.1)
 Occupation numbers read from record     2102.2  Type=RHF/RHF (state 1.1)
 Orbital energies read from record       2102.2  Type=RHF/CANONICAL (state 1.1)
 Redundancy group numbers read from rec  2102.2  Type=RHF/RHF (state 1.1)

 RHF/cc-pVQZ energy=    -38.934458912579

         RHF-SCF        UCCSD(T)         RHF-SCF        UCCSD(T)         RHF-SCF
    -38.93445891    -39.07778125    -38.93200653    -39.04132655    -38.92131488
 **********************************************************************************************************************************
 Molpro calculation terminated
