 Entering Gaussian System, Link 0=g16
 Initial command:
 /software//g16/l1.exe "/home/tmp/g16/Gau-756065.inp" -scrdir="/home/tmp/g16/"
 Entering Link 1 = /software//g16/l1.exe PID=    756094.
  
 Copyright (c) 1988-2019, Gaussian, Inc.  All Rights Reserved.
  
 This is part of the Gaussian(R) 16 program.  It is based on
 the Gaussian(R) 09 system (copyright 2009, Gaussian, Inc.),
 the Gaussian(R) 03 system (copyright 2003, Gaussian, Inc.),
 the Gaussian(R) 98 system (copyright 1998, Gaussian, Inc.),
 the Gaussian(R) 94 system (copyright 1995, Gaussian, Inc.),
 the Gaussian 92(TM) system (copyright 1992, Gaussian, Inc.),
 the Gaussian 90(TM) system (copyright 1990, Gaussian, Inc.),
 the Gaussian 88(TM) system (copyright 1988, Gaussian, Inc.),
 the Gaussian 86(TM) system (copyright 1986, Carnegie Mellon
 University), and the Gaussian 82(TM) system (copyright 1983,
 Carnegie Mellon University). Gaussian is a federally registered
 trademark of Gaussian, Inc.
  
 This software contains proprietary and confidential information,
 including trade secrets, belonging to Gaussian, Inc.
  
 This software is provided under written license and may be
 used, copied, transmitted, or stored only in accord with that
 written license.
  
 The following legend is applicable only to US Government
 contracts under FAR:
  
                    RESTRICTED RIGHTS LEGEND
  
 Use, reproduction and disclosure by the US Government is
 subject to restrictions as set forth in subparagraphs (a)
 and (c) of the Commercial Computer Software - Restricted
 Rights clause in FAR 52.227-19.
  
 Gaussian, Inc.
 340 Quinnipiac St., Bldg. 40, Wallingford CT 06492
  
  
 ---------------------------------------------------------------
 Warning -- This program may not be used in any manner that
 competes with the business of Gaussian, Inc. or will provide
 assistance to any competitor of Gaussian, Inc.  The licensee
 of this program is prohibited from giving any competitor of
 Gaussian, Inc. access to this program.  By using this program,
 the user acknowledges that Gaussian, Inc. is engaged in the
 business of creating and licensing software in the field of
 computational chemistry and represents and warrants to the
 licensee that it is not a competitor of Gaussian, Inc. and that
 it will not use this program in any manner prohibited above.
 ---------------------------------------------------------------
  

 Cite this work as:
 Gaussian 16, Revision C.01,
 M. J. Frisch, G. W. Trucks, H. B. Schlegel, G. E. Scuseria, 
 M. A. Robb, J. R. Cheeseman, G. Scalmani, V. Barone, 
 G. A. Petersson, H. Nakatsuji, X. Li, M. Caricato, A. V. Marenich, 
 J. Bloino, B. G. Janesko, R. Gomperts, B. Mennucci, H. P. Hratchian, 
 J. V. Ortiz, A. F. Izmaylov, J. L. Sonnenberg, D. Williams-Young, 
 F. Ding, F. Lipparini, F. Egidi, J. Goings, B. Peng, A. Petrone, 
 T. Henderson, D. Ranasinghe, V. G. Zakrzewski, J. Gao, N. Rega, 
 G. Zheng, W. Liang, M. Hada, M. Ehara, K. Toyota, R. Fukuda, 
 J. Hasegawa, M. Ishida, T. Nakajima, Y. Honda, O. Kitao, H. Nakai, 
 T. Vreven, K. Throssell, J. A. Montgomery, Jr., J. E. Peralta, 
 F. Ogliaro, M. J. Bearpark, J. J. Heyd, E. N. Brothers, K. N. Kudin, 
 V. N. Staroverov, T. A. Keith, R. Kobayashi, J. Normand, 
 K. Raghavachari, A. P. Rendell, J. C. Burant, S. S. Iyengar, 
 J. Tomasi, M. Cossi, J. M. Millam, M. Klene, C. Adamo, R. Cammi, 
 J. W. Ochterski, R. L. Martin, K. Morokuma, O. Farkas, 
 J. B. Foresman, and D. J. Fox, Gaussian, Inc., Wallingford CT, 2019.
 
 ******************************************
 Gaussian 16:  ES64L-G16RevC.01  3-Jul-2019
                26-Jul-2022 
 ******************************************
 %nprocshared=8
 Will use up to    8 processors via shared memory.
 %chk=[CH2]-T.chk
 ----------------------------------------------------------------------
 # opt freq=hinderedrotor M062X/6-311++g(d,p) symm=veryloose press=0.98
 7 int=superfine
 ----------------------------------------------------------------------
 1/18=20,19=15,26=5,38=1,113=-987000/1,3;
 2/9=110,12=2,17=2,18=2,40=1/2;
 3/5=4,6=6,7=1111,11=2,25=1,30=1,71=1,74=-55,75=-7/1,2,3;
 4//1;
 5/5=2,38=5/2;
 6/7=2,8=2,9=2,10=2,28=1/1;
 7//1,2,3,16;
 1/18=20,19=15,26=5/3(2);
 2/9=110/2;
 99//99;
 2/9=110/2;
 3/5=4,6=6,7=1111,11=2,25=1,30=1,71=1,74=-55,75=-7/1,2,3;
 4/5=5,16=3,69=1/1;
 5/5=2,38=5/2;
 7//1,2,3,16;
 1/18=20,19=15,26=5/3(-5);
 2/9=110/2;
 6/7=2,8=2,9=2,10=2,19=2,28=1/1;
 99/9=1/99;
 ---------
 [CH2]-T_1
 ---------
 Symbolic Z-matrix:
 Charge =  0 Multiplicity = 1
 C                    -0.039     0.        0. 
 H                     0.228     0.       -1.06639 
 H                     0.228     0.        1.06639 
 

 GradGradGradGradGradGradGradGradGradGradGradGradGradGradGradGradGradGrad
 Berny optimization.
 Initialization pass.
                           ----------------------------
                           !    Initial Parameters    !
                           ! (Angstroms and Degrees)  !
 --------------------------                            --------------------------
 ! Name  Definition              Value          Derivative Info.                !
 --------------------------------------------------------------------------------
 ! R1    R(1,2)                  1.0993         estimate D2E/DX2                !
 ! R2    R(1,3)                  1.0993         estimate D2E/DX2                !
 ! A1    A(2,1,3)              151.8869         estimate D2E/DX2                !
 --------------------------------------------------------------------------------
 Trust Radius=3.00D-01 FncErr=1.00D-07 GrdErr=1.00D-07 EigMax=2.50D+02 EigMin=1.00D-04
 Number of steps in this run=     20 maximum allowed number of steps=    100.
 GradGradGradGradGradGradGradGradGradGradGradGradGradGradGradGradGradGrad

                          Input orientation:                          
 ---------------------------------------------------------------------
 Center     Atomic      Atomic             Coordinates (Angstroms)
 Number     Number       Type             X           Y           Z
 ---------------------------------------------------------------------
      1          6           0       -0.039000    0.000000    0.000000
      2          1           0        0.228000    0.000000   -1.066392
      3          1           0        0.228000    0.000000    1.066392
 ---------------------------------------------------------------------
                    Distance matrix (angstroms):
                    1          2          3
     1  C    0.000000
     2  H    1.099309   0.000000
     3  H    1.099309   2.132784   0.000000
 Stoichiometry    CH2
 Framework group  C2V[C2(C),SGV(H2)]
 Deg. of freedom     2
 Full point group                 C2V     NOp   4
 Largest Abelian subgroup         C2V     NOp   4
 Largest concise Abelian subgroup C2      NOp   2
                         Standard orientation:                         
 ---------------------------------------------------------------------
 Center     Atomic      Atomic             Coordinates (Angstroms)
 Number     Number       Type             X           Y           Z
 ---------------------------------------------------------------------
      1          6           0        0.000000   -0.000000    0.066750
      2          1           0        0.000000    1.066392   -0.200250
      3          1           0       -0.000000   -1.066392   -0.200250
 ---------------------------------------------------------------------
 Rotational constants (GHZ):        4107.8212581         220.4795451         209.2485258
 Standard basis: 6-311++G(d,p) (5D, 7F)
 There are    18 symmetry adapted cartesian basis functions of A1  symmetry.
 There are     2 symmetry adapted cartesian basis functions of A2  symmetry.
 There are     6 symmetry adapted cartesian basis functions of B1  symmetry.
 There are    11 symmetry adapted cartesian basis functions of B2  symmetry.
 There are    17 symmetry adapted basis functions of A1  symmetry.
 There are     2 symmetry adapted basis functions of A2  symmetry.
 There are     6 symmetry adapted basis functions of B1  symmetry.
 There are    11 symmetry adapted basis functions of B2  symmetry.
    36 basis functions,    54 primitive gaussians,    37 cartesian basis functions
     4 alpha electrons        4 beta electrons
       nuclear repulsion energy         6.0245852002 Hartrees.
 NAtoms=    3 NActive=    3 NUniq=    2 SFac= 2.25D+00 NAtFMM=   60 NAOKFM=F Big=F
 Integral buffers will be    131072 words long.
 Raffenetti 2 integral format.
 Two-electron integral symmetry is turned on.
 One-electron integrals computed using PRISM.
 NBasis=    36 RedAO= T EigKep=  4.60D-03  NBF=    17     2     6    11
 NBsUse=    36 1.00D-06 EigRej= -1.00D+00 NBFU=    17     2     6    11
 ExpMin= 3.60D-02 ExpMax= 4.56D+03 ExpMxC= 6.82D+02 IAcc=3 IRadAn=         7 AccDes= 0.00D+00
 Harris functional with IExCor= 1009 and IRadAn=       7 diagonalized for initial guess.
 HarFok:  IExCor= 1009 AccDes= 0.00D+00 IRadAn=         7 IDoV= 1 UseB2=F ITyADJ=14
 ICtDFT=  3500011 ScaDFX=  1.000000  1.000000  1.000000  1.000000
 FoFCou: FMM=F IPFlag=           0 FMFlag=      100000 FMFlg1=           0
         NFxFlg=           0 DoJE=T BraDBF=F KetDBF=T FulRan=T
         wScrn=  0.000000 ICntrl=       500 IOpCl=  0 I1Cent=   200000004 NGrid=           0
         NMat0=    1 NMatS0=      1 NMatT0=    0 NMatD0=    1 NMtDS0=    0 NMtDT0=    0
 Petite list used in FoFCou.
 Initial guess orbital symmetries:
       Occupied  (A1) (A1) (B2) (A1)
       Virtual   (B1) (A1) (B2) (A1) (A1) (B1) (B2) (A1) (B2) (A1)
                 (B1) (A1) (B2) (B2) (A1) (A2) (B2) (A1) (B1) (A1)
                 (B1) (A1) (B2) (A2) (B2) (A1) (B2) (A1) (B1) (A1)
                 (B2) (A1)
 The electronic state of the initial guess is 1-A1.
 Keep R1 ints in memory in symmetry-blocked form, NReq=7175644.
 Requested convergence on RMS density matrix=1.00D-08 within 128 cycles.
 Requested convergence on MAX density matrix=1.00D-06.
 Requested convergence on             energy=1.00D-06.
 No special actions if energy rises.
 SCF Done:  E(RM062X) =  -39.0817758430     A.U. after    9 cycles
            NFock=  9  Conv=0.81D-08     -V/T= 2.0053

 **********************************************************************

            Population analysis using the SCF Density.

 **********************************************************************

 Orbital symmetries:
       Occupied  (A1) (A1) (B2) (A1)
       Virtual   (B1) (A1) (B2) (B1) (A1) (A1) (B2) (A1) (B2) (A1)
                 (B1) (B2) (A1) (B2) (A1) (A2) (B2) (B1) (A1) (A1)
                 (B1) (A1) (B2) (A2) (B2) (A1) (B2) (B1) (A1) (A1)
                 (B2) (A1)
 The electronic state is 1-A1.
 Alpha  occ. eigenvalues --  -10.59848  -0.73476  -0.53754  -0.26068
 Alpha virt. eigenvalues --   -0.08288   0.00457   0.02637   0.08420   0.08755
 Alpha virt. eigenvalues --    0.11329   0.13719   0.15443   0.23285   0.41966
 Alpha virt. eigenvalues --    0.58559   0.59211   0.59986   0.70221   0.79347
 Alpha virt. eigenvalues --    1.04550   1.21735   1.31871   1.32842   1.52141
 Alpha virt. eigenvalues --    1.60961   1.75317   1.98170   2.07962   2.38345
 Alpha virt. eigenvalues --    2.43059   2.65111   2.74720   2.76090   3.05850
 Alpha virt. eigenvalues --    3.50005  23.86035
          Condensed to atoms (all electrons):
               1          2          3
     1  C    5.575349   0.372833   0.372833
     2  H    0.372833   0.500790  -0.034131
     3  H    0.372833  -0.034131   0.500790
 Mulliken charges:
               1
     1  C   -0.321015
     2  H    0.160508
     3  H    0.160508
 Sum of Mulliken charges =  -0.00000
 Mulliken charges with hydrogens summed into heavy atoms:
               1
     1  C   -0.000000
 Electronic spatial extent (au):  <R**2>=             25.8878
 Charge=             -0.0000 electrons
 Dipole moment (field-independent basis, Debye):
    X=             -0.0000    Y=             -0.0000    Z=             -1.3441  Tot=              1.3441
 Quadrupole moment (field-independent basis, Debye-Ang):
   XX=             -6.5196   YY=             -5.4914   ZZ=            -11.3711
   XY=              0.0000   XZ=              0.0000   YZ=              0.0000
 Traceless Quadrupole moment (field-independent basis, Debye-Ang):
   XX=              1.2744   YY=              2.3027   ZZ=             -3.5770
   XY=              0.0000   XZ=              0.0000   YZ=              0.0000
 Octapole moment (field-independent basis, Debye-Ang**2):
  XXX=              0.0000  YYY=             -0.0000  ZZZ=             -2.5201  XYY=             -0.0000
  XXY=             -0.0000  XXZ=             -0.5735  XZZ=              0.0000  YZZ=             -0.0000
  YYZ=             -1.0184  XYZ=             -0.0000
 Hexadecapole moment (field-independent basis, Debye-Ang**3):
 XXXX=             -6.8821 YYYY=            -13.6577 ZZZZ=            -21.8963 XXXY=             -0.0000
 XXXZ=             -0.0000 YYYX=             -0.0000 YYYZ=              0.0000 ZZZX=             -0.0000
 ZZZY=             -0.0000 XXYY=             -4.2336 XXZZ=             -4.7799 YYZZ=             -6.6412
 XXYZ=              0.0000 YYXZ=              0.0000 ZZXY=             -0.0000
 N-N= 6.024585200178D+00 E-N=-1.024591775516D+02  KE= 3.887676240023D+01
 Symmetry A1   KE= 3.688103343834D+01
 Symmetry A2   KE= 3.736573648782D-35
 Symmetry B1   KE= 7.521093328132D-33
 Symmetry B2   KE= 1.995728961896D+00
 Calling FoFJK, ICntrl=      2127 FMM=F ISym2X=1 I1Cent= 0 IOpClX= 0 NMat=1 NMatS=1 NMatT=0.
 ***** Axes restored to original set *****
 -------------------------------------------------------------------
 Center     Atomic                   Forces (Hartrees/Bohr)
 Number     Number              X              Y              Z
 -------------------------------------------------------------------
      1        6          -0.043142212   -0.000000000    0.000000000
      2        1           0.021571106    0.000000000    0.021673160
      3        1           0.021571106    0.000000000   -0.021673160
 -------------------------------------------------------------------
 Cartesian Forces:  Max     0.043142212 RMS     0.020361531

 GradGradGradGradGradGradGradGradGradGradGradGradGradGradGradGradGradGrad
 Berny optimization.
 FormGI is forming the generalized inverse of G from B-inverse, IUseBI=4.
 Internal  Forces:  Max     0.054405194 RMS     0.033952210
 Search for a local minimum.
 Step number   1 out of a maximum of   20
 All quantities printed in internal units (Hartrees-Bohrs-Radians)
 Mixed Optimization -- RFO/linear search
 Second derivative matrix not updated -- first step.
 The second derivative matrix:
                          R1        R2        A1
           R1           0.33759
           R2           0.00000   0.33759
           A1           0.00000   0.00000   0.16000
 ITU=  0
     Eigenvalues ---    0.16000   0.33759   0.33759
 RFO step:  Lambda=-1.80275521D-02 EMin= 1.60000000D-01
 Linear search not attempted -- first point.
 Maximum step size (   0.300) exceeded in Quadratic search.
    -- Step size scaled by   0.962
 Iteration  1 RMS(Cart)=  0.11715709 RMS(Int)=  0.05297335
 Iteration  2 RMS(Cart)=  0.05188183 RMS(Int)=  0.00173432
 Iteration  3 RMS(Cart)=  0.00156500 RMS(Int)=  0.00000024
 Iteration  4 RMS(Cart)=  0.00000024 RMS(Int)=  0.00000000
 ClnCor:  largest displacement from symmetrization is 6.39D-15 for atom     3.
 Variable       Old X    -DE/DX   Delta X   Delta X   Delta X     New X
                                 (Linear)    (Quad)   (Total)
    R1        2.07739  -0.01579   0.00000  -0.04268  -0.04268   2.03471
    R2        2.07739  -0.01579   0.00000  -0.04268  -0.04268   2.03471
    A1        2.65093  -0.05441   0.00000  -0.29386  -0.29386   2.35706
         Item               Value     Threshold  Converged?
 Maximum Force            0.054405     0.000450     NO 
 RMS     Force            0.033952     0.000300     NO 
 Maximum Displacement     0.182185     0.001800     NO 
 RMS     Displacement     0.169559     0.001200     NO 
 Predicted change in Energy=-9.811723D-03
 GradGradGradGradGradGradGradGradGradGradGradGradGradGradGradGradGradGrad

                          Input orientation:                          
 ---------------------------------------------------------------------
 Center     Atomic      Atomic             Coordinates (Angstroms)
 Number     Number       Type             X           Y           Z
 ---------------------------------------------------------------------
      1          6           0       -0.135408    0.000000   -0.000000
      2          1           0        0.276204    0.000000   -0.994940
      3          1           0        0.276204   -0.000000    0.994940
 ---------------------------------------------------------------------
                    Distance matrix (angstroms):
                    1          2          3
     1  C    0.000000
     2  H    1.076722   0.000000
     3  H    1.076722   1.989880   0.000000
 Stoichiometry    CH2
 Framework group  C2V[C2(C),SGV(H2)]
 Deg. of freedom     2
 Full point group                 C2V     NOp   4
 Largest Abelian subgroup         C2V     NOp   4
 Largest concise Abelian subgroup C2      NOp   2
                         Standard orientation:                         
 ---------------------------------------------------------------------
 Center     Atomic      Atomic             Coordinates (Angstroms)
 Number     Number       Type             X           Y           Z
 ---------------------------------------------------------------------
      1          6           0       -0.000000    0.000000    0.102903
      2          1           0        0.000000    0.994940   -0.308709
      3          1           0       -0.000000   -0.994940   -0.308709
 ---------------------------------------------------------------------
 Rotational constants (GHZ):        1728.4507565         253.2842607         220.9121645
 Standard basis: 6-311++G(d,p) (5D, 7F)
 There are    18 symmetry adapted cartesian basis functions of A1  symmetry.
 There are     2 symmetry adapted cartesian basis functions of A2  symmetry.
 There are     6 symmetry adapted cartesian basis functions of B1  symmetry.
 There are    11 symmetry adapted cartesian basis functions of B2  symmetry.
 There are    17 symmetry adapted basis functions of A1  symmetry.
 There are     2 symmetry adapted basis functions of A2  symmetry.
 There are     6 symmetry adapted basis functions of B1  symmetry.
 There are    11 symmetry adapted basis functions of B2  symmetry.
    36 basis functions,    54 primitive gaussians,    37 cartesian basis functions
     4 alpha electrons        4 beta electrons
       nuclear repulsion energy         6.1635805957 Hartrees.
 NAtoms=    3 NActive=    3 NUniq=    2 SFac= 2.25D+00 NAtFMM=   60 NAOKFM=F Big=F
 Integral buffers will be    131072 words long.
 Raffenetti 2 integral format.
 Two-electron integral symmetry is turned on.
 One-electron integrals computed using PRISM.
 NBasis=    36 RedAO= T EigKep=  5.94D-03  NBF=    17     2     6    11
 NBsUse=    36 1.00D-06 EigRej= -1.00D+00 NBFU=    17     2     6    11
 Initial guess from the checkpoint file:  "[CH2]-T.chk"
 B after Tr=     0.000000    0.000000    0.000000
         Rot=    1.000000   -0.000000    0.000000    0.000000 Ang=   0.00 deg.
 Initial guess orbital symmetries:
       Occupied  (A1) (A1) (B2) (A1)
       Virtual   (B1) (A1) (B2) (B1) (A1) (A1) (B2) (A1) (B2) (A1)
                 (B1) (B2) (A1) (B2) (A1) (A2) (B2) (B1) (A1) (A1)
                 (B1) (A1) (B2) (A2) (B2) (A1) (B2) (B1) (A1) (A1)
                 (B2) (A1)
 ExpMin= 3.60D-02 ExpMax= 4.56D+03 ExpMxC= 6.82D+02 IAcc=3 IRadAn=         7 AccDes= 0.00D+00
 Harris functional with IExCor= 1009 and IRadAn=       7 diagonalized for initial guess.
 HarFok:  IExCor= 1009 AccDes= 0.00D+00 IRadAn=         7 IDoV= 1 UseB2=F ITyADJ=14
 ICtDFT=  3500011 ScaDFX=  1.000000  1.000000  1.000000  1.000000
 FoFCou: FMM=F IPFlag=           0 FMFlag=      100000 FMFlg1=           0
         NFxFlg=           0 DoJE=T BraDBF=F KetDBF=T FulRan=T
         wScrn=  0.000000 ICntrl=       500 IOpCl=  0 I1Cent=   200000004 NGrid=           0
         NMat0=    1 NMatS0=      1 NMatT0=    0 NMatD0=    1 NMtDS0=    0 NMtDT0=    0
 Petite list used in FoFCou.
 Keep R1 ints in memory in symmetry-blocked form, NReq=7175644.
 Requested convergence on RMS density matrix=1.00D-08 within 128 cycles.
 Requested convergence on MAX density matrix=1.00D-06.
 Requested convergence on             energy=1.00D-06.
 No special actions if energy rises.
 SCF Done:  E(RM062X) =  -39.0990029925     A.U. after   10 cycles
            NFock= 10  Conv=0.61D-08     -V/T= 2.0030
 Calling FoFJK, ICntrl=      2127 FMM=F ISym2X=1 I1Cent= 0 IOpClX= 0 NMat=1 NMatS=1 NMatT=0.
 ***** Axes restored to original set *****
 -------------------------------------------------------------------
 Center     Atomic                   Forces (Hartrees/Bohr)
 Number     Number              X              Y              Z
 -------------------------------------------------------------------
      1        6          -0.055597505   -0.000000000   -0.000000000
      2        1           0.027798753    0.000000000    0.004360760
      3        1           0.027798753    0.000000000   -0.004360760
 -------------------------------------------------------------------
 Cartesian Forces:  Max     0.055597505 RMS     0.022790486

 GradGradGradGradGradGradGradGradGradGradGradGradGradGradGradGradGradGrad
 Berny optimization.
 Using GEDIIS/GDIIS optimizer.
 FormGI is forming the generalized inverse of G from B-inverse, IUseBI=4.
 Internal  Forces:  Max     0.055658172 RMS     0.032582637
 Search for a local minimum.
 Step number   2 out of a maximum of   20
 All quantities printed in internal units (Hartrees-Bohrs-Radians)
 Mixed Optimization -- RFO/linear search
 Update second derivatives using D2CorX and points    1    2
 DE= -1.72D-02 DEPred=-9.81D-03 R= 1.76D+00
 TightC=F SS=  1.41D+00  RLast= 3.00D-01 DXNew= 5.0454D-01 9.0000D-01
 Trust test= 1.76D+00 RLast= 3.00D-01 DXMaxT set to 5.05D-01
 The second derivative matrix:
                          R1        R2        A1
           R1           0.64856
           R2           0.31098   0.64856
           A1          -0.06321  -0.06321   0.01410
 ITU=  1  0
 Use linear search instead of GDIIS.
     Eigenvalues ---    0.00572   0.33759   0.96792
 RFO step:  Lambda=-5.18677578D-02 EMin= 5.72061245D-03
 Skip linear search -- no minimum in search direction.
 Maximum step size (   0.505) exceeded in Quadratic search.
    -- Step size scaled by   0.533
 Iteration  1 RMS(Cart)=  0.11876401 RMS(Int)=  0.17409217
 Iteration  2 RMS(Cart)=  0.11780272 RMS(Int)=  0.05898636
 Iteration  3 RMS(Cart)=  0.06506200 RMS(Int)=  0.00212893
 Iteration  4 RMS(Cart)=  0.00174264 RMS(Int)=  0.00000029
 Iteration  5 RMS(Cart)=  0.00000032 RMS(Int)=  0.00000000
 ClnCor:  largest displacement from symmetrization is 8.39D-15 for atom     3.
 Variable       Old X    -DE/DX   Delta X   Delta X   Delta X     New X
                                 (Linear)    (Quad)   (Total)
    R1        2.03471   0.00660   0.00000  -0.02796  -0.02796   2.00675
    R2        2.03471   0.00660   0.00000  -0.02796  -0.02796   2.00675
    A1        2.35706  -0.05566   0.00000  -0.50299  -0.50299   1.85408
         Item               Value     Threshold  Converged?
 Maximum Force            0.055658     0.000450     NO 
 RMS     Force            0.032583     0.000300     NO 
 Maximum Displacement     0.284419     0.001800     NO 
 RMS     Displacement     0.301481     0.001200     NO 
 Predicted change in Energy=-2.687073D-02
 GradGradGradGradGradGradGradGradGradGradGradGradGradGradGradGradGradGrad

                          Input orientation:                          
 ---------------------------------------------------------------------
 Center     Atomic      Atomic             Coordinates (Angstroms)
 Number     Number       Type             X           Y           Z
 ---------------------------------------------------------------------
      1          6           0       -0.285917   -0.000000   -0.000000
      2          1           0        0.351458    0.000000   -0.849377
      3          1           0        0.351458   -0.000000    0.849377
 ---------------------------------------------------------------------
                    Distance matrix (angstroms):
                    1          2          3
     1  C    0.000000
     2  H    1.061927   0.000000
     3  H    1.061927   1.698755   0.000000
 Stoichiometry    CH2
 Framework group  C2V[C2(C),SGV(H2)]
 Deg. of freedom     2
 Full point group                 C2V     NOp   4
 Largest Abelian subgroup         C2V     NOp   4
 Largest concise Abelian subgroup C2      NOp   2
                         Standard orientation:                         
 ---------------------------------------------------------------------
 Center     Atomic      Atomic             Coordinates (Angstroms)
 Number     Number       Type             X           Y           Z
 ---------------------------------------------------------------------
      1          6           0       -0.000000    0.000000    0.159344
      2          1           0        0.000000    0.849377   -0.478031
      3          1           0       -0.000000   -0.849377   -0.478031
 ---------------------------------------------------------------------
 Rotational constants (GHZ):         720.8487816         347.5367110         234.4859757
 Standard basis: 6-311++G(d,p) (5D, 7F)
 There are    18 symmetry adapted cartesian basis functions of A1  symmetry.
 There are     2 symmetry adapted cartesian basis functions of A2  symmetry.
 There are     6 symmetry adapted cartesian basis functions of B1  symmetry.
 There are    11 symmetry adapted cartesian basis functions of B2  symmetry.
 There are    17 symmetry adapted basis functions of A1  symmetry.
 There are     2 symmetry adapted basis functions of A2  symmetry.
 There are     6 symmetry adapted basis functions of B1  symmetry.
 There are    11 symmetry adapted basis functions of B2  symmetry.
    36 basis functions,    54 primitive gaussians,    37 cartesian basis functions
     4 alpha electrons        4 beta electrons
       nuclear repulsion energy         6.2913242171 Hartrees.
 NAtoms=    3 NActive=    3 NUniq=    2 SFac= 2.25D+00 NAtFMM=   60 NAOKFM=F Big=F
 Integral buffers will be    131072 words long.
 Raffenetti 2 integral format.
 Two-electron integral symmetry is turned on.
 One-electron integrals computed using PRISM.
 NBasis=    36 RedAO= T EigKep=  4.00D-03  NBF=    17     2     6    11
 NBsUse=    36 1.00D-06 EigRej= -1.00D+00 NBFU=    17     2     6    11
 Initial guess from the checkpoint file:  "[CH2]-T.chk"
 B after Tr=     0.000000   -0.000000   -0.000000
         Rot=    1.000000    0.000000    0.000000    0.000000 Ang=   0.00 deg.
 Initial guess orbital symmetries:
       Occupied  (A1) (A1) (B2) (A1)
       Virtual   (B1) (A1) (B2) (B1) (A1) (A1) (B2) (A1) (B2) (A1)
                 (B2) (B1) (A1) (B2) (A1) (A2) (A1) (B1) (B2) (A1)
                 (B1) (B2) (A1) (A2) (B2) (B2) (A1) (A1) (B1) (A1)
                 (B2) (A1)
 ExpMin= 3.60D-02 ExpMax= 4.56D+03 ExpMxC= 6.82D+02 IAcc=3 IRadAn=         7 AccDes= 0.00D+00
 Harris functional with IExCor= 1009 and IRadAn=       7 diagonalized for initial guess.
 HarFok:  IExCor= 1009 AccDes= 0.00D+00 IRadAn=         7 IDoV= 1 UseB2=F ITyADJ=14
 ICtDFT=  3500011 ScaDFX=  1.000000  1.000000  1.000000  1.000000
 FoFCou: FMM=F IPFlag=           0 FMFlag=      100000 FMFlg1=           0
         NFxFlg=           0 DoJE=T BraDBF=F KetDBF=T FulRan=T
         wScrn=  0.000000 ICntrl=       500 IOpCl=  0 I1Cent=   200000004 NGrid=           0
         NMat0=    1 NMatS0=      1 NMatT0=    0 NMatD0=    1 NMtDS0=    0 NMtDT0=    0
 Petite list used in FoFCou.
 Keep R1 ints in memory in symmetry-blocked form, NReq=7175644.
 Requested convergence on RMS density matrix=1.00D-08 within 128 cycles.
 Requested convergence on MAX density matrix=1.00D-06.
 Requested convergence on             energy=1.00D-06.
 No special actions if energy rises.
 SCF Done:  E(RM062X) =  -39.1160848488     A.U. after   10 cycles
            NFock= 10  Conv=0.37D-08     -V/T= 2.0006
 Calling FoFJK, ICntrl=      2127 FMM=F ISym2X=1 I1Cent= 0 IOpClX= 0 NMat=1 NMatS=1 NMatT=0.
 ***** Axes restored to original set *****
 -------------------------------------------------------------------
 Center     Atomic                   Forces (Hartrees/Bohr)
 Number     Number              X              Y              Z
 -------------------------------------------------------------------
      1        6          -0.041963168   -0.000000000   -0.000000000
      2        1           0.020981584    0.000000000   -0.022200202
      3        1           0.020981584    0.000000000    0.022200202
 -------------------------------------------------------------------
 Cartesian Forces:  Max     0.041963168 RMS     0.020075024

 GradGradGradGradGradGradGradGradGradGradGradGradGradGradGradGradGradGrad
 Berny optimization.
 Using GEDIIS/GDIIS optimizer.
 FormGI is forming the generalized inverse of G from B-inverse, IUseBI=4.
 Internal  Forces:  Max     0.030350003 RMS     0.025102332
 Search for a local minimum.
 Step number   3 out of a maximum of   20
 All quantities printed in internal units (Hartrees-Bohrs-Radians)
 Mixed Optimization -- RFO/linear search
 Update second derivatives using D2CorX and points    2    3
 DE= -1.71D-02 DEPred=-2.69D-02 R= 6.36D-01
 TightC=F SS=  1.41D+00  RLast= 5.05D-01 DXNew= 8.4853D-01 1.5136D+00
 Trust test= 6.36D-01 RLast= 5.05D-01 DXMaxT set to 8.49D-01
 The second derivative matrix:
                          R1        R2        A1
           R1           0.65410
           R2           0.31651   0.65410
           A1          -0.00673  -0.00673   0.09761
 ITU=  1  1  0
 Use linear search instead of GDIIS.
     Eigenvalues ---    0.09751   0.33759   0.97071
 RFO step:  Lambda=-2.12574352D-03 EMin= 9.75062476D-02
 Quartic linear search produced a step of  0.04249.
 Iteration  1 RMS(Cart)=  0.02895369 RMS(Int)=  0.00071616
 Iteration  2 RMS(Cart)=  0.00085178 RMS(Int)=  0.00000021
 Iteration  3 RMS(Cart)=  0.00000015 RMS(Int)=  0.00000000
 ClnCor:  largest displacement from symmetrization is 2.12D-15 for atom     3.
 Variable       Old X    -DE/DX   Delta X   Delta X   Delta X     New X
                                 (Linear)    (Quad)   (Total)
    R1        2.00675   0.03035  -0.00119   0.03210   0.03092   2.03767
    R2        2.00675   0.03035  -0.00119   0.03210   0.03092   2.03767
    A1        1.85408  -0.00694  -0.02137  -0.03071  -0.05208   1.80200
         Item               Value     Threshold  Converged?
 Maximum Force            0.030350     0.000450     NO 
 RMS     Force            0.025102     0.000300     NO 
 Maximum Displacement     0.040384     0.001800     NO 
 RMS     Displacement     0.029234     0.001200     NO 
 Predicted change in Energy=-1.156179D-03
 GradGradGradGradGradGradGradGradGradGradGradGradGradGradGradGradGradGrad

                          Input orientation:                          
 ---------------------------------------------------------------------
 Center     Atomic      Atomic             Coordinates (Angstroms)
 Number     Number       Type             X           Y           Z
 ---------------------------------------------------------------------
      1          6           0       -0.307287   -0.000000   -0.000000
      2          1           0        0.362143    0.000000   -0.845320
      3          1           0        0.362143   -0.000000    0.845320
 ---------------------------------------------------------------------
                    Distance matrix (angstroms):
                    1          2          3
     1  C    0.000000
     2  H    1.078287   0.000000
     3  H    1.078287   1.690640   0.000000
 Stoichiometry    CH2
 Framework group  C2V[C2(C),SGV(H2)]
 Deg. of freedom     2
 Full point group                 C2V     NOp   4
 Largest Abelian subgroup         C2V     NOp   4
 Largest concise Abelian subgroup C2      NOp   2
                         Standard orientation:                         
 ---------------------------------------------------------------------
 Center     Atomic      Atomic             Coordinates (Angstroms)
 Number     Number       Type             X           Y           Z
 ---------------------------------------------------------------------
      1          6           0        0.000000    0.000000    0.167358
      2          1           0       -0.000000    0.845320   -0.502073
      3          1           0       -0.000000   -0.845320   -0.502073
 ---------------------------------------------------------------------
 Rotational constants (GHZ):         653.4661332         350.8809844         228.2964088
 Standard basis: 6-311++G(d,p) (5D, 7F)
 There are    18 symmetry adapted cartesian basis functions of A1  symmetry.
 There are     2 symmetry adapted cartesian basis functions of A2  symmetry.
 There are     6 symmetry adapted cartesian basis functions of B1  symmetry.
 There are    11 symmetry adapted cartesian basis functions of B2  symmetry.
 There are    17 symmetry adapted basis functions of A1  symmetry.
 There are     2 symmetry adapted basis functions of A2  symmetry.
 There are     6 symmetry adapted basis functions of B1  symmetry.
 There are    11 symmetry adapted basis functions of B2  symmetry.
    36 basis functions,    54 primitive gaussians,    37 cartesian basis functions
     4 alpha electrons        4 beta electrons
       nuclear repulsion energy         6.2020913102 Hartrees.
 NAtoms=    3 NActive=    3 NUniq=    2 SFac= 2.25D+00 NAtFMM=   60 NAOKFM=F Big=F
 Integral buffers will be    131072 words long.
 Raffenetti 2 integral format.
 Two-electron integral symmetry is turned on.
 One-electron integrals computed using PRISM.
 NBasis=    36 RedAO= T EigKep=  4.03D-03  NBF=    17     2     6    11
 NBsUse=    36 1.00D-06 EigRej= -1.00D+00 NBFU=    17     2     6    11
 Initial guess from the checkpoint file:  "[CH2]-T.chk"
 B after Tr=     0.000000    0.000000   -0.000000
         Rot=    1.000000   -0.000000    0.000000   -0.000000 Ang=   0.00 deg.
 Initial guess orbital symmetries:
       Occupied  (A1) (A1) (B2) (A1)
       Virtual   (B1) (A1) (B2) (B1) (A1) (B2) (A1) (A1) (B2) (B2)
                 (A1) (B1) (A1) (B2) (A1) (A2) (A1) (B1) (B2) (A1)
                 (B2) (B1) (A2) (A1) (B2) (A1) (B2) (A1) (B1) (A1)
                 (B2) (A1)
 ExpMin= 3.60D-02 ExpMax= 4.56D+03 ExpMxC= 6.82D+02 IAcc=3 IRadAn=         7 AccDes= 0.00D+00
 Harris functional with IExCor= 1009 and IRadAn=       7 diagonalized for initial guess.
 HarFok:  IExCor= 1009 AccDes= 0.00D+00 IRadAn=         7 IDoV= 1 UseB2=F ITyADJ=14
 ICtDFT=  3500011 ScaDFX=  1.000000  1.000000  1.000000  1.000000
 FoFCou: FMM=F IPFlag=           0 FMFlag=      100000 FMFlg1=           0
         NFxFlg=           0 DoJE=T BraDBF=F KetDBF=T FulRan=T
         wScrn=  0.000000 ICntrl=       500 IOpCl=  0 I1Cent=   200000004 NGrid=           0
         NMat0=    1 NMatS0=      1 NMatT0=    0 NMatD0=    1 NMtDS0=    0 NMtDT0=    0
 Petite list used in FoFCou.
 Keep R1 ints in memory in symmetry-blocked form, NReq=7175644.
 Requested convergence on RMS density matrix=1.00D-08 within 128 cycles.
 Requested convergence on MAX density matrix=1.00D-06.
 Requested convergence on             energy=1.00D-06.
 No special actions if energy rises.
 SCF Done:  E(RM062X) =  -39.1178280854     A.U. after    9 cycles
            NFock=  9  Conv=0.14D-08     -V/T= 2.0016
 Calling FoFJK, ICntrl=      2127 FMM=F ISym2X=1 I1Cent= 0 IOpClX= 0 NMat=1 NMatS=1 NMatT=0.
 ***** Axes restored to original set *****
 -------------------------------------------------------------------
 Center     Atomic                   Forces (Hartrees/Bohr)
 Number     Number              X              Y              Z
 -------------------------------------------------------------------
      1        6          -0.024989333   -0.000000000    0.000000000
      2        1           0.012494666    0.000000000   -0.015102374
      3        1           0.012494666    0.000000000    0.015102374
 -------------------------------------------------------------------
 Cartesian Forces:  Max     0.024989333 RMS     0.012440362

 GradGradGradGradGradGradGradGradGradGradGradGradGradGradGradGradGradGrad
 Berny optimization.
 Using GEDIIS/GDIIS optimizer.
 FormGI is forming the generalized inverse of G from B-inverse, IUseBI=4.
 Internal  Forces:  Max     0.019596496 RMS     0.016008070
 Search for a local minimum.
 Step number   4 out of a maximum of   20
 All quantities printed in internal units (Hartrees-Bohrs-Radians)
 Mixed Optimization -- RFO/linear search
 Update second derivatives using D2CorX and points    2    3    4
 DE= -1.74D-03 DEPred=-1.16D-03 R= 1.51D+00
 TightC=F SS=  1.41D+00  RLast= 6.80D-02 DXNew= 1.4270D+00 2.0400D-01
 Trust test= 1.51D+00 RLast= 6.80D-02 DXMaxT set to 8.49D-01
 The second derivative matrix:
                          R1        R2        A1
           R1           0.35268
           R2           0.01509   0.35268
           A1           0.01184   0.01184   0.13087
 ITU=  1  1  1  0
 Use linear search instead of GDIIS.
     Eigenvalues ---    0.12970   0.33759   0.36894
 RFO step:  Lambda=-4.61403034D-04 EMin= 1.29695609D-01
 Quartic linear search produced a step of  1.35291.
 Iteration  1 RMS(Cart)=  0.03422396 RMS(Int)=  0.00036560
 Iteration  2 RMS(Cart)=  0.00045074 RMS(Int)=  0.00000008
 Iteration  3 RMS(Cart)=  0.00000006 RMS(Int)=  0.00000000
 ClnCor:  largest displacement from symmetrization is 2.22D-16 for atom     3.
 Variable       Old X    -DE/DX   Delta X   Delta X   Delta X     New X
                                 (Linear)    (Quad)   (Total)
    R1        2.03767   0.01960   0.04183   0.01349   0.05532   2.09298
    R2        2.03767   0.01960   0.04183   0.01349   0.05532   2.09298
    A1        1.80200  -0.00085  -0.07046   0.04756  -0.02290   1.77910
         Item               Value     Threshold  Converged?
 Maximum Force            0.019596     0.000450     NO 
 RMS     Force            0.016008     0.000300     NO 
 Maximum Displacement     0.035362     0.001800     NO 
 RMS     Displacement     0.034090     0.001200     NO 
 Predicted change in Energy=-1.057923D-03
 GradGradGradGradGradGradGradGradGradGradGradGradGradGradGradGradGradGrad

                          Input orientation:                          
 ---------------------------------------------------------------------
 Center     Atomic      Atomic             Coordinates (Angstroms)
 Number     Number       Type             X           Y           Z
 ---------------------------------------------------------------------
      1          6           0       -0.326000   -0.000000   -0.000000
      2          1           0        0.371500    0.000000   -0.860338
      3          1           0        0.371500   -0.000000    0.860338
 ---------------------------------------------------------------------
                    Distance matrix (angstroms):
                    1          2          3
     1  C    0.000000
     2  H    1.107559   0.000000
     3  H    1.107559   1.720675   0.000000
 Stoichiometry    CH2
 Framework group  C2V[C2(C),SGV(H2)]
 Deg. of freedom     2
 Full point group                 C2V     NOp   4
 Largest Abelian subgroup         C2V     NOp   4
 Largest concise Abelian subgroup C2      NOp   2
                         Standard orientation:                         
 ---------------------------------------------------------------------
 Center     Atomic      Atomic             Coordinates (Angstroms)
 Number     Number       Type             X           Y           Z
 ---------------------------------------------------------------------
      1          6           0        0.000000    0.000000    0.174375
      2          1           0        0.000000    0.860338   -0.523125
      3          1           0       -0.000000   -0.860338   -0.523125
 ---------------------------------------------------------------------
 Rotational constants (GHZ):         601.9305050         338.7382768         216.7573815
 Standard basis: 6-311++G(d,p) (5D, 7F)
 There are    18 symmetry adapted cartesian basis functions of A1  symmetry.
 There are     2 symmetry adapted cartesian basis functions of A2  symmetry.
 There are     6 symmetry adapted cartesian basis functions of B1  symmetry.
 There are    11 symmetry adapted cartesian basis functions of B2  symmetry.
 There are    17 symmetry adapted basis functions of A1  symmetry.
 There are     2 symmetry adapted basis functions of A2  symmetry.
 There are     6 symmetry adapted basis functions of B1  symmetry.
 There are    11 symmetry adapted basis functions of B2  symmetry.
    36 basis functions,    54 primitive gaussians,    37 cartesian basis functions
     4 alpha electrons        4 beta electrons
       nuclear repulsion energy         6.0409852995 Hartrees.
 NAtoms=    3 NActive=    3 NUniq=    2 SFac= 2.25D+00 NAtFMM=   60 NAOKFM=F Big=F
 Integral buffers will be    131072 words long.
 Raffenetti 2 integral format.
 Two-electron integral symmetry is turned on.
 One-electron integrals computed using PRISM.
 NBasis=    36 RedAO= T EigKep=  4.29D-03  NBF=    17     2     6    11
 NBsUse=    36 1.00D-06 EigRej= -1.00D+00 NBFU=    17     2     6    11
 Initial guess from the checkpoint file:  "[CH2]-T.chk"
 B after Tr=    -0.000000   -0.000000   -0.000000
         Rot=    1.000000   -0.000000    0.000000   -0.000000 Ang=   0.00 deg.
 Initial guess orbital symmetries:
       Occupied  (A1) (A1) (B2) (A1)
       Virtual   (B1) (A1) (B2) (B1) (A1) (B2) (A1) (A1) (B2) (B2)
                 (A1) (B1) (A1) (B2) (A1) (A1) (A2) (B1) (A1) (B2)
                 (B2) (A2) (B1) (A1) (A1) (B2) (B2) (A1) (B1) (A1)
                 (B2) (A1)
 ExpMin= 3.60D-02 ExpMax= 4.56D+03 ExpMxC= 6.82D+02 IAcc=3 IRadAn=         7 AccDes= 0.00D+00
 Harris functional with IExCor= 1009 and IRadAn=       7 diagonalized for initial guess.
 HarFok:  IExCor= 1009 AccDes= 0.00D+00 IRadAn=         7 IDoV= 1 UseB2=F ITyADJ=14
 ICtDFT=  3500011 ScaDFX=  1.000000  1.000000  1.000000  1.000000
 FoFCou: FMM=F IPFlag=           0 FMFlag=      100000 FMFlg1=           0
         NFxFlg=           0 DoJE=T BraDBF=F KetDBF=T FulRan=T
         wScrn=  0.000000 ICntrl=       500 IOpCl=  0 I1Cent=   200000004 NGrid=           0
         NMat0=    1 NMatS0=      1 NMatT0=    0 NMatD0=    1 NMtDS0=    0 NMtDT0=    0
 Petite list used in FoFCou.
 Keep R1 ints in memory in symmetry-blocked form, NReq=7175644.
 Requested convergence on RMS density matrix=1.00D-08 within 128 cycles.
 Requested convergence on MAX density matrix=1.00D-06.
 Requested convergence on             energy=1.00D-06.
 No special actions if energy rises.
 SCF Done:  E(RM062X) =  -39.1189541816     A.U. after    8 cycles
            NFock=  8  Conv=0.70D-08     -V/T= 2.0035
 Calling FoFJK, ICntrl=      2127 FMM=F ISym2X=1 I1Cent= 0 IOpClX= 0 NMat=1 NMatS=1 NMatT=0.
 ***** Axes restored to original set *****
 -------------------------------------------------------------------
 Center     Atomic                   Forces (Hartrees/Bohr)
 Number     Number              X              Y              Z
 -------------------------------------------------------------------
      1        6          -0.001500452   -0.000000000    0.000000000
      2        1           0.000750226    0.000000000   -0.000750692
      3        1           0.000750226    0.000000000    0.000750692
 -------------------------------------------------------------------
 Cartesian Forces:  Max     0.001500452 RMS     0.000707430

 GradGradGradGradGradGradGradGradGradGradGradGradGradGradGradGradGradGrad
 Berny optimization.
 Using GEDIIS/GDIIS optimizer.
 FormGI is forming the generalized inverse of G from B-inverse, IUseBI=4.
 Internal  Forces:  Max     0.001055592 RMS     0.000872079
 Search for a local minimum.
 Step number   5 out of a maximum of   20
 All quantities printed in internal units (Hartrees-Bohrs-Radians)
 Mixed Optimization -- En-DIIS/RFO-DIIS
 Update second derivatives using D2CorX and points    2    3    4    5
 DE= -1.13D-03 DEPred=-1.06D-03 R= 1.06D+00
 TightC=F SS=  1.41D+00  RLast= 8.15D-02 DXNew= 1.4270D+00 2.4453D-01
 Trust test= 1.06D+00 RLast= 8.15D-02 DXMaxT set to 8.49D-01
 The second derivative matrix:
                          R1        R2        A1
           R1           0.33979
           R2           0.00220   0.33979
           A1           0.01644   0.01644   0.10669
 ITU=  1  1  1  1
 Use linear search instead of GDIIS.
     Eigenvalues ---    0.10441   0.33759   0.34427
 RFO step:  Lambda=-4.97218141D-07 EMin= 1.04414637D-01
 Quartic linear search produced a step of  0.06475.
 Iteration  1 RMS(Cart)=  0.00246077 RMS(Int)=  0.00000452
 Iteration  2 RMS(Cart)=  0.00000567 RMS(Int)=  0.00000000
 Iteration  3 RMS(Cart)=  0.00000000 RMS(Int)=  0.00000000
 ClnCor:  largest displacement from symmetrization is 3.14D-16 for atom     3.
 Variable       Old X    -DE/DX   Delta X   Delta X   Delta X     New X
                                 (Linear)    (Quad)   (Total)
    R1        2.09298   0.00106   0.00358  -0.00004   0.00355   2.09653
    R2        2.09298   0.00106   0.00358  -0.00004   0.00355   2.09653
    A1        1.77910  -0.00023  -0.00148  -0.00215  -0.00363   1.77547
         Item               Value     Threshold  Converged?
 Maximum Force            0.001056     0.000450     NO 
 RMS     Force            0.000872     0.000300     NO 
 Maximum Displacement     0.003457     0.001800     NO 
 RMS     Displacement     0.002462     0.001200     NO 
 Predicted change in Energy=-3.742368D-06
 GradGradGradGradGradGradGradGradGradGradGradGradGradGradGradGradGradGrad

                          Input orientation:                          
 ---------------------------------------------------------------------
 Center     Atomic      Atomic             Coordinates (Angstroms)
 Number     Number       Type             X           Y           Z
 ---------------------------------------------------------------------
      1          6           0       -0.327829   -0.000000   -0.000000
      2          1           0        0.372414    0.000000   -0.860526
      3          1           0        0.372414   -0.000000    0.860526
 ---------------------------------------------------------------------
                    Distance matrix (angstroms):
                    1          2          3
     1  C    0.000000
     2  H    1.109435   0.000000
     3  H    1.109435   1.721052   0.000000
 Stoichiometry    CH2
 Framework group  C2V[C2(C),SGV(H2)]
 Deg. of freedom     2
 Full point group                 C2V     NOp   4
 Largest Abelian subgroup         C2V     NOp   4
 Largest concise Abelian subgroup C2      NOp   2
                         Standard orientation:                         
 ---------------------------------------------------------------------
 Center     Atomic      Atomic             Coordinates (Angstroms)
 Number     Number       Type             X           Y           Z
 ---------------------------------------------------------------------
      1          6           0        0.000000   -0.000000    0.175061
      2          1           0        0.000000    0.860526   -0.525183
      3          1           0       -0.000000   -0.860526   -0.525183
 ---------------------------------------------------------------------
 Rotational constants (GHZ):         597.2224021         338.5899561         216.0833901
 Standard basis: 6-311++G(d,p) (5D, 7F)
 There are    18 symmetry adapted cartesian basis functions of A1  symmetry.
 There are     2 symmetry adapted cartesian basis functions of A2  symmetry.
 There are     6 symmetry adapted cartesian basis functions of B1  symmetry.
 There are    11 symmetry adapted cartesian basis functions of B2  symmetry.
 There are    17 symmetry adapted basis functions of A1  symmetry.
 There are     2 symmetry adapted basis functions of A2  symmetry.
 There are     6 symmetry adapted basis functions of B1  symmetry.
 There are    11 symmetry adapted basis functions of B2  symmetry.
    36 basis functions,    54 primitive gaussians,    37 cartesian basis functions
     4 alpha electrons        4 beta electrons
       nuclear repulsion energy         6.0312219536 Hartrees.
 NAtoms=    3 NActive=    3 NUniq=    2 SFac= 2.25D+00 NAtFMM=   60 NAOKFM=F Big=F
 Integral buffers will be    131072 words long.
 Raffenetti 2 integral format.
 Two-electron integral symmetry is turned on.
 One-electron integrals computed using PRISM.
 NBasis=    36 RedAO= T EigKep=  4.30D-03  NBF=    17     2     6    11
 NBsUse=    36 1.00D-06 EigRej= -1.00D+00 NBFU=    17     2     6    11
 Initial guess from the checkpoint file:  "[CH2]-T.chk"
 B after Tr=    -0.000000    0.000000    0.000000
         Rot=    1.000000    0.000000    0.000000   -0.000000 Ang=   0.00 deg.
 Initial guess orbital symmetries:
       Occupied  (A1) (A1) (B2) (A1)
       Virtual   (B1) (A1) (B2) (B1) (A1) (B2) (A1) (A1) (B2) (B2)
                 (A1) (B1) (A1) (B2) (A1) (A1) (A2) (B1) (A1) (B2)
                 (B2) (A2) (B1) (A1) (A1) (B2) (B2) (A1) (B1) (A1)
                 (B2) (A1)
 Keep R1 ints in memory in symmetry-blocked form, NReq=7175644.
 Requested convergence on RMS density matrix=1.00D-08 within 128 cycles.
 Requested convergence on MAX density matrix=1.00D-06.
 Requested convergence on             energy=1.00D-06.
 No special actions if energy rises.
 SCF Done:  E(RM062X) =  -39.1189581618     A.U. after    7 cycles
            NFock=  7  Conv=0.48D-08     -V/T= 2.0036
 Calling FoFJK, ICntrl=      2127 FMM=F ISym2X=1 I1Cent= 0 IOpClX= 0 NMat=1 NMatS=1 NMatT=0.
 ***** Axes restored to original set *****
 -------------------------------------------------------------------
 Center     Atomic                   Forces (Hartrees/Bohr)
 Number     Number              X              Y              Z
 -------------------------------------------------------------------
      1        6           0.000075692   -0.000000000   -0.000000000
      2        1          -0.000037846    0.000000000   -0.000064779
      3        1          -0.000037846    0.000000000    0.000064779
 -------------------------------------------------------------------
 Cartesian Forces:  Max     0.000075692 RMS     0.000043444

 GradGradGradGradGradGradGradGradGradGradGradGradGradGradGradGradGradGrad
 Berny optimization.
 Using GEDIIS/GDIIS optimizer.
 FormGI is forming the generalized inverse of G from B-inverse, IUseBI=4.
 Internal  Forces:  Max     0.000147263 RMS     0.000087704
 Search for a local minimum.
 Step number   6 out of a maximum of   20
 All quantities printed in internal units (Hartrees-Bohrs-Radians)
 Mixed Optimization -- En-DIIS/RFO-DIIS
 Swapping is turned off.
 Update second derivatives using D2CorX and points    3    4    5    6
 DE= -3.98D-06 DEPred=-3.74D-06 R= 1.06D+00
 TightC=F SS=  1.41D+00  RLast= 6.19D-03 DXNew= 1.4270D+00 1.8568D-02
 Trust test= 1.06D+00 RLast= 6.19D-03 DXMaxT set to 8.49D-01
 The second derivative matrix:
                          R1        R2        A1
           R1           0.31723
           R2          -0.02035   0.31723
           A1           0.00643   0.00643   0.11662
 ITU=  1  1  1  1
     Eigenvalues ---    0.11616   0.29734   0.33759
 En-DIIS/RFO-DIIS/Sim-DIIS IScMMF=       -3 using points:     6    5
 RFO step:  Lambda=-1.88208738D-07.
 DidBck=F Rises=F RFO-DIIS coefs:    0.89243    0.10757
 Iteration  1 RMS(Cart)=  0.00085398 RMS(Int)=  0.00000034
 Iteration  2 RMS(Cart)=  0.00000028 RMS(Int)=  0.00000000
 ClnCor:  largest displacement from symmetrization is 2.22D-16 for atom     3.
 Variable       Old X    -DE/DX   Delta X   Delta X   Delta X     New X
                                 (Linear)    (Quad)   (Total)
    R1        2.09653   0.00003  -0.00038   0.00044   0.00006   2.09659
    R2        2.09653   0.00003  -0.00038   0.00044   0.00006   2.09659
    A1        1.77547   0.00015   0.00039   0.00087   0.00126   1.77672
         Item               Value     Threshold  Converged?
 Maximum Force            0.000147     0.000450     YES
 RMS     Force            0.000088     0.000300     YES
 Maximum Displacement     0.000878     0.001800     YES
 RMS     Displacement     0.000854     0.001200     YES
 Predicted change in Energy=-9.410437D-08
 Optimization completed.
    -- Stationary point found.
                           ----------------------------
                           !   Optimized Parameters   !
                           ! (Angstroms and Degrees)  !
 --------------------------                            --------------------------
 ! Name  Definition              Value          Derivative Info.                !
 --------------------------------------------------------------------------------
 ! R1    R(1,2)                  1.1094         -DE/DX =    0.0                 !
 ! R2    R(1,3)                  1.1094         -DE/DX =    0.0                 !
 ! A1    A(2,1,3)              101.7268         -DE/DX =    0.0001              !
 --------------------------------------------------------------------------------
 GradGradGradGradGradGradGradGradGradGradGradGradGradGradGradGradGradGrad

                          Input orientation:                          
 ---------------------------------------------------------------------
 Center     Atomic      Atomic             Coordinates (Angstroms)
 Number     Number       Type             X           Y           Z
 ---------------------------------------------------------------------
      1          6           0       -0.327829   -0.000000   -0.000000
      2          1           0        0.372414    0.000000   -0.860526
      3          1           0        0.372414   -0.000000    0.860526
 ---------------------------------------------------------------------
                    Distance matrix (angstroms):
                    1          2          3
     1  C    0.000000
     2  H    1.109435   0.000000
     3  H    1.109435   1.721052   0.000000
 Stoichiometry    CH2
 Framework group  C2V[C2(C),SGV(H2)]
 Deg. of freedom     2
 Full point group                 C2V     NOp   4
 Largest Abelian subgroup         C2V     NOp   4
 Largest concise Abelian subgroup C2      NOp   2
                         Standard orientation:                         
 ---------------------------------------------------------------------
 Center     Atomic      Atomic             Coordinates (Angstroms)
 Number     Number       Type             X           Y           Z
 ---------------------------------------------------------------------
      1          6           0       -0.000000    0.000000    0.175061
      2          1           0        0.000000    0.860526   -0.525183
      3          1           0       -0.000000   -0.860526   -0.525183
 ---------------------------------------------------------------------
 Rotational constants (GHZ):         597.2224021         338.5899561         216.0833901

 **********************************************************************

            Population analysis using the SCF Density.

 **********************************************************************

 Orbital symmetries:
       Occupied  (A1) (A1) (B2) (A1)
       Virtual   (B1) (A1) (B2) (B1) (A1) (B2) (A1) (A1) (B2) (B2)
                 (A1) (B1) (A1) (B2) (A1) (A1) (A2) (B1) (A1) (B2)
                 (B2) (A2) (B1) (A1) (A1) (B2) (B2) (A1) (B1) (A1)
                 (B2) (A1)
 The electronic state is 1-A1.
 Alpha  occ. eigenvalues --  -10.60971  -0.75858  -0.47703  -0.31601
 Alpha virt. eigenvalues --   -0.08392   0.00142   0.03435   0.08413   0.08568
 Alpha virt. eigenvalues --    0.11065   0.13226   0.19368   0.21110   0.44471
 Alpha virt. eigenvalues --    0.52076   0.58624   0.63982   0.68856   0.78413
 Alpha virt. eigenvalues --    1.09012   1.10286   1.19053   1.56038   1.57125
 Alpha virt. eigenvalues --    1.62710   1.86355   1.87774   2.13292   2.36862
 Alpha virt. eigenvalues --    2.45866   2.53431   2.60741   2.74908   3.08016
 Alpha virt. eigenvalues --    3.59994  23.76932
          Condensed to atoms (all electrons):
               1          2          3
     1  C    5.683758   0.262758   0.262758
     2  H    0.262758   0.669205  -0.036599
     3  H    0.262758  -0.036599   0.669205
 Mulliken charges:
               1
     1  C   -0.209274
     2  H    0.104637
     3  H    0.104637
 Sum of Mulliken charges =   0.00000
 Mulliken charges with hydrogens summed into heavy atoms:
               1
     1  C    0.000000
 Electronic spatial extent (au):  <R**2>=             25.3831
 Charge=              0.0000 electrons
 Dipole moment (field-independent basis, Debye):
    X=             -0.0000    Y=             -0.0000    Z=             -2.0802  Tot=              2.0802
 Quadrupole moment (field-independent basis, Debye-Ang):
   XX=             -6.4402   YY=             -7.2454   ZZ=             -9.8091
   XY=              0.0000   XZ=              0.0000   YZ=             -0.0000
 Traceless Quadrupole moment (field-independent basis, Debye-Ang):
   XX=              1.3913   YY=              0.5862   ZZ=             -1.9775
   XY=              0.0000   XZ=              0.0000   YZ=             -0.0000
 Octapole moment (field-independent basis, Debye-Ang**2):
  XXX=              0.0000  YYY=              0.0000  ZZZ=             -4.1391  XYY=              0.0000
  XXY=             -0.0000  XXZ=             -0.8588  XZZ=              0.0000  YZZ=              0.0000
  YYZ=             -1.4914  XYZ=             -0.0000
 Hexadecapole moment (field-independent basis, Debye-Ang**3):
 XXXX=             -6.3616 YYYY=            -15.2951 ZZZZ=            -19.8884 XXXY=             -0.0000
 XXXZ=             -0.0000 YYYX=             -0.0000 YYYZ=             -0.0000 ZZZX=             -0.0000
 ZZZY=             -0.0000 XXYY=             -3.8094 XXZZ=             -4.3387 YYZZ=             -5.5818
 XXYZ=              0.0000 YYXZ=             -0.0000 ZZXY=             -0.0000
 N-N= 6.031221953583D+00 E-N=-1.025850851227D+02  KE= 3.897935284827D+01
 Symmetry A1   KE= 3.697405377520D+01
 Symmetry A2   KE= 3.301004124553D-35
 Symmetry B1   KE= 8.025122490996D-33
 Symmetry B2   KE= 2.005299073068D+00
 Unable to Open any file for archive entry.
 1\1\GINC-LOCALHOST\FOpt\RM062X\6-311++G(d,p)\C1H2\ROOT\26-Jul-2022\0\\
 # opt freq=hinderedrotor M062X/6-311++g(d,p) symm=veryloose press=0.98
 7 int=superfine\\[CH2]-T_1\\0,1\C,-0.3278288917,0.,0.\H,0.3724144458,0
 .,-0.8605259965\H,0.3724144458,0.,0.8605259965\\Version=ES64L-G16RevC.
 01\State=1-A1\HF=-39.1189582\RMSD=4.751e-09\RMSF=4.344e-05\Dipole=0.81
 84299,0.,0.\Quadrupole=-1.4702479,1.0344267,0.4358211,0.,0.,0.\PG=C02V
  [C2(C1),SGV(H2)]\\@
 The archive entry for this job was punched.


 IF THE FACTS DO NOT CONFORM TO THE THEORY, THEY MUST BE DISPOSED OF.
 Job cpu time:       0 days  0 hours  1 minutes  4.2 seconds.
 Elapsed time:       0 days  0 hours  0 minutes  9.4 seconds.
 File lengths (MBytes):  RWF=      6 Int=      0 D2E=      0 Chk=      1 Scr=      1
 Normal termination of Gaussian 16 at Tue Jul 26 02:14:31 2022.
 Link1:  Proceeding to internal job step number  2.
 ----------------------------------------------------------------------
 #N Geom=AllCheck Guess=TCheck SCRF=Check GenChk RM062X/6-311++G(d,p) F
 req
 ----------------------------------------------------------------------
 1/10=4,18=20,29=7,30=1,38=1,40=1,113=-987000/1,3;
 2/12=2,17=2,18=2,40=1/2;
 3/5=4,6=6,7=1111,11=2,14=-4,25=1,30=1,70=2,71=2,74=-55,75=-7,116=1,140=1/1,2,3;
 4/5=101/1;
 5/5=2,38=6,98=1/2;
 8/6=4,10=90,11=11/1;
 11/6=1,8=1,9=11,15=111,16=1/1,2,10;
 10/6=1/2;
 6/7=2,8=2,9=2,10=2,28=1/1;
 7/8=2001,10=1,25=1/1,2,3,16;
 1/10=4,18=20,30=1/3;
 99//99;
 Structure from the checkpoint file:  "[CH2]-T.chk"
 ---------
 [CH2]-T_1
 ---------
 Charge =  0 Multiplicity = 1
 Redundant internal coordinates found in file.  (old form).
 C,0,-0.3278288917,0.,0.
 H,0,0.3724144458,0.,-0.8605259965
 H,0,0.3724144458,0.,0.8605259965
 Recover connectivity data from disk.

 GradGradGradGradGradGradGradGradGradGradGradGradGradGradGradGradGradGrad
 Berny optimization.
 Initialization pass.
                           ----------------------------
                           !    Initial Parameters    !
                           ! (Angstroms and Degrees)  !
 --------------------------                            --------------------------
 ! Name  Definition              Value          Derivative Info.                !
 --------------------------------------------------------------------------------
 ! R1    R(1,2)                  1.1094         calculate D2E/DX2 analytically  !
 ! R2    R(1,3)                  1.1094         calculate D2E/DX2 analytically  !
 ! A1    A(2,1,3)              101.7268         calculate D2E/DX2 analytically  !
 --------------------------------------------------------------------------------
 Trust Radius=3.00D-01 FncErr=1.00D-07 GrdErr=1.00D-07 EigMax=2.50D+02 EigMin=1.00D-04
 Number of steps in this run=      2 maximum allowed number of steps=      2.
 GradGradGradGradGradGradGradGradGradGradGradGradGradGradGradGradGradGrad

                          Input orientation:                          
 ---------------------------------------------------------------------
 Center     Atomic      Atomic             Coordinates (Angstroms)
 Number     Number       Type             X           Y           Z
 ---------------------------------------------------------------------
      1          6           0       -0.327829   -0.000000   -0.000000
      2          1           0        0.372414    0.000000   -0.860526
      3          1           0        0.372414   -0.000000    0.860526
 ---------------------------------------------------------------------
                    Distance matrix (angstroms):
                    1          2          3
     1  C    0.000000
     2  H    1.109435   0.000000
     3  H    1.109435   1.721052   0.000000
 Stoichiometry    CH2
 Framework group  C2V[C2(C),SGV(H2)]
 Deg. of freedom     2
 Full point group                 C2V     NOp   4
 Largest Abelian subgroup         C2V     NOp   4
 Largest concise Abelian subgroup C2      NOp   2
                         Standard orientation:                         
 ---------------------------------------------------------------------
 Center     Atomic      Atomic             Coordinates (Angstroms)
 Number     Number       Type             X           Y           Z
 ---------------------------------------------------------------------
      1          6           0       -0.000000   -0.000000    0.175061
      2          1           0        0.000000    0.860526   -0.525183
      3          1           0       -0.000000   -0.860526   -0.525183
 ---------------------------------------------------------------------
 Rotational constants (GHZ):         597.2224021         338.5899561         216.0833901
 Standard basis: 6-311++G(d,p) (5D, 7F)
 There are    18 symmetry adapted cartesian basis functions of A1  symmetry.
 There are     2 symmetry adapted cartesian basis functions of A2  symmetry.
 There are     6 symmetry adapted cartesian basis functions of B1  symmetry.
 There are    11 symmetry adapted cartesian basis functions of B2  symmetry.
 There are    17 symmetry adapted basis functions of A1  symmetry.
 There are     2 symmetry adapted basis functions of A2  symmetry.
 There are     6 symmetry adapted basis functions of B1  symmetry.
 There are    11 symmetry adapted basis functions of B2  symmetry.
    36 basis functions,    54 primitive gaussians,    37 cartesian basis functions
     4 alpha electrons        4 beta electrons
       nuclear repulsion energy         6.0312219536 Hartrees.
 NAtoms=    3 NActive=    3 NUniq=    2 SFac= 2.25D+00 NAtFMM=   60 NAOKFM=F Big=F
 Integral buffers will be    131072 words long.
 Raffenetti 2 integral format.
 Two-electron integral symmetry is turned on.
 One-electron integrals computed using PRISM.
 NBasis=    36 RedAO= T EigKep=  4.30D-03  NBF=    17     2     6    11
 NBsUse=    36 1.00D-06 EigRej= -1.00D+00 NBFU=    17     2     6    11
 Initial guess from the checkpoint file:  "[CH2]-T.chk"
 B after Tr=    -0.000000    0.000000    0.000000
         Rot=    1.000000    0.000000   -0.000000    0.000000 Ang=   0.00 deg.
 Initial guess orbital symmetries:
       Occupied  (A1) (A1) (B2) (A1)
       Virtual   (B1) (A1) (B2) (B1) (A1) (B2) (A1) (A1) (B2) (B2)
                 (A1) (B1) (A1) (B2) (A1) (A1) (A2) (B1) (A1) (B2)
                 (B2) (A2) (B1) (A1) (A1) (B2) (B2) (A1) (B1) (A1)
                 (B2) (A1)
 Keep R1 ints in memory in symmetry-blocked form, NReq=7175644.
 Requested convergence on RMS density matrix=1.00D-08 within 128 cycles.
 Requested convergence on MAX density matrix=1.00D-06.
 Requested convergence on             energy=1.00D-06.
 No special actions if energy rises.
 SCF Done:  E(RM062X) =  -39.1189581618     A.U. after    1 cycles
            NFock=  1  Conv=0.78D-09     -V/T= 2.0036
 DoSCS=F DFT=T ScalE2(SS,OS)=  1.000000  1.000000
 Range of M.O.s used for correlation:     1    36
 NBasis=    36 NAE=     4 NBE=     4 NFC=     0 NFV=     0
 NROrb=     36 NOA=     4 NOB=     4 NVA=    32 NVB=    32
 Symmetrizing basis deriv contribution to polar:
 IMax=3 JMax=2 DiffMx= 0.00D+00
 G2DrvN: will do     4 centers at a time, making    1 passes.
 Calling FoFCou, ICntrl=  3107 FMM=F I1Cent=   0 AccDes= 0.00D+00.
 End of G2Drv F.D. properties file   721 does not exist.
 End of G2Drv F.D. properties file   722 does not exist.
 End of G2Drv F.D. properties file   788 does not exist.
          IDoAtm=111
          Differentiating once with respect to electric field.
                with respect to dipole field.
          Differentiating once with respect to nuclear coordinates.
 Keep R1 ints in memory in symmetry-blocked form, NReq=7127660.
          There are     9 degrees of freedom in the 1st order CPHF.  IDoFFX=4 NUNeed=     9.
      9 vectors produced by pass  0 Test12= 1.42D-15 1.11D-08 XBig12= 6.93D+00 1.87D+00.
 AX will form     9 AO Fock derivatives at one time.
      9 vectors produced by pass  1 Test12= 1.42D-15 1.11D-08 XBig12= 3.62D-01 2.46D-01.
      9 vectors produced by pass  2 Test12= 1.42D-15 1.11D-08 XBig12= 8.68D-03 3.93D-02.
      9 vectors produced by pass  3 Test12= 1.42D-15 1.11D-08 XBig12= 6.65D-05 4.02D-03.
      9 vectors produced by pass  4 Test12= 1.42D-15 1.11D-08 XBig12= 5.23D-07 3.58D-04.
      6 vectors produced by pass  5 Test12= 1.42D-15 1.11D-08 XBig12= 1.57D-09 1.30D-05.
      2 vectors produced by pass  6 Test12= 1.42D-15 1.11D-08 XBig12= 3.08D-12 7.99D-07.
      1 vectors produced by pass  7 Test12= 1.42D-15 1.11D-08 XBig12= 1.40D-14 5.49D-08.
 InvSVY:  IOpt=1 It=  1 EMax= 4.39D-16
 Solved reduced A of dimension    54 with     9 vectors.
 Isotropic polarizability for W=    0.000000       13.23 Bohr**3.
 End of Minotr F.D. properties file   721 does not exist.
 End of Minotr F.D. properties file   722 does not exist.
 End of Minotr F.D. properties file   788 does not exist.

 **********************************************************************

            Population analysis using the SCF Density.

 **********************************************************************

 Orbital symmetries:
       Occupied  (A1) (A1) (B2) (A1)
       Virtual   (B1) (A1) (B2) (B1) (A1) (B2) (A1) (A1) (B2) (B2)
                 (A1) (B1) (A1) (B2) (A1) (A1) (A2) (B1) (A1) (B2)
                 (B2) (A2) (B1) (A1) (A1) (B2) (B2) (A1) (B1) (A1)
                 (B2) (A1)
 The electronic state is 1-A1.
 Alpha  occ. eigenvalues --  -10.60971  -0.75858  -0.47703  -0.31601
 Alpha virt. eigenvalues --   -0.08392   0.00142   0.03435   0.08413   0.08568
 Alpha virt. eigenvalues --    0.11065   0.13226   0.19368   0.21110   0.44471
 Alpha virt. eigenvalues --    0.52076   0.58624   0.63982   0.68856   0.78413
 Alpha virt. eigenvalues --    1.09012   1.10286   1.19053   1.56038   1.57125
 Alpha virt. eigenvalues --    1.62710   1.86355   1.87774   2.13292   2.36862
 Alpha virt. eigenvalues --    2.45866   2.53431   2.60741   2.74908   3.08016
 Alpha virt. eigenvalues --    3.59994  23.76932
          Condensed to atoms (all electrons):
               1          2          3
     1  C    5.683758   0.262758   0.262758
     2  H    0.262758   0.669205  -0.036599
     3  H    0.262758  -0.036599   0.669205
 Mulliken charges:
               1
     1  C   -0.209274
     2  H    0.104637
     3  H    0.104637
 Sum of Mulliken charges =  -0.00000
 Mulliken charges with hydrogens summed into heavy atoms:
               1
     1  C   -0.000000
 APT charges:
               1
     1  C   -0.107435
     2  H    0.053718
     3  H    0.053718
 Sum of APT charges =   0.00000
 APT charges with hydrogens summed into heavy atoms:
               1
     1  C    0.000000
 Electronic spatial extent (au):  <R**2>=             25.3831
 Charge=              0.0000 electrons
 Dipole moment (field-independent basis, Debye):
    X=             -0.0000    Y=              0.0000    Z=             -2.0802  Tot=              2.0802
 Quadrupole moment (field-independent basis, Debye-Ang):
   XX=             -6.4402   YY=             -7.2454   ZZ=             -9.8091
   XY=              0.0000   XZ=              0.0000   YZ=             -0.0000
 Traceless Quadrupole moment (field-independent basis, Debye-Ang):
   XX=              1.3913   YY=              0.5862   ZZ=             -1.9775
   XY=              0.0000   XZ=              0.0000   YZ=             -0.0000
 Octapole moment (field-independent basis, Debye-Ang**2):
  XXX=              0.0000  YYY=              0.0000  ZZZ=             -4.1391  XYY=              0.0000
  XXY=             -0.0000  XXZ=             -0.8588  XZZ=              0.0000  YZZ=             -0.0000
  YYZ=             -1.4914  XYZ=             -0.0000
 Hexadecapole moment (field-independent basis, Debye-Ang**3):
 XXXX=             -6.3616 YYYY=            -15.2951 ZZZZ=            -19.8884 XXXY=             -0.0000
 XXXZ=             -0.0000 YYYX=             -0.0000 YYYZ=              0.0000 ZZZX=             -0.0000
 ZZZY=              0.0000 XXYY=             -3.8094 XXZZ=             -4.3387 YYZZ=             -5.5818
 XXYZ=              0.0000 YYXZ=             -0.0000 ZZXY=             -0.0000
 N-N= 6.031221953583D+00 E-N=-1.025850851346D+02  KE= 3.897935285433D+01
 Symmetry A1   KE= 3.697405377157D+01
 Symmetry A2   KE= 3.301004070986D-35
 Symmetry B1   KE= 8.025122567641D-33
 Symmetry B2   KE= 2.005299082754D+00
  Exact polarizability:       9.764       0.000      15.841       0.000       0.000      14.079
 Approx polarizability:       9.591       0.000      15.811       0.000       0.000      12.521
 Calling FoFJK, ICntrl=    100127 FMM=F ISym2X=1 I1Cent= 0 IOpClX= 0 NMat=1 NMatS=1 NMatT=0.
 Full mass-weighted force constant matrix:
 Low frequencies ---  -72.3448   -0.0002   -0.0001    0.0007   22.6378   59.3127
 Low frequencies --- 1403.0778 2958.4413 3021.8066
 Diagonal vibrational polarizability:
        0.0000000       0.2033078       0.2464495

 rotorrotorrotorrotorrotorrotorrotorrotorrotorrotorrotor

           Hindered Internal Rotation Analysis

 rotorrotorrotorrotorrotorrotorrotorrotorrotorrotorrotor

 Internal coordinate list sorted
 Checking for planar centers
 Checking for ring deformation
 Checking reduced barrier height
 Cut-off : V/RT =     33.756
 Number of internal rotation degrees of freedom =             0
 No hindered rotor corrections are necessary.

 Harmonic frequencies (cm**-1), IR intensities (KM/Mole), Raman scattering
 activities (A**4/AMU), depolarization ratios for plane and unpolarized
 incident light, reduced masses (AMU), force constants (mDyne/A),
 and normal coordinates:
                      1                      2                      3
                     ?A                     ?A                     ?B
 Frequencies --   1403.0778              2958.4413              3021.8066
 Red. masses --      1.1008                 1.0578                 1.1003
 Frc consts  --      1.2768                 5.4548                 5.9198
 IR Inten    --      0.1853                79.3292                68.9849
  Atom  AN      X      Y      Z        X      Y      Z        X      Y      Z
     1   6    -0.00   0.00  -0.10     0.00  -0.00   0.07    -0.00  -0.10  -0.00
     2   1     0.00   0.46   0.57     0.00   0.60  -0.41    -0.00   0.57  -0.47
     3   1     0.00  -0.46   0.57    -0.00  -0.60  -0.41     0.00   0.57   0.47

 -------------------
 - Thermochemistry -
 -------------------
 Temperature   298.150 Kelvin.  Pressure   0.98700 Atm.
 Atom     1 has atomic number  6 and mass  12.00000
 Atom     2 has atomic number  1 and mass   1.00783
 Atom     3 has atomic number  1 and mass   1.00783
 Molecular mass:    14.01565 amu.
 Principal axes and moments of inertia in atomic units:
                           1         2         3
     Eigenvalues --     3.02189   5.33017   8.35206
           X           -0.00000   0.00000   1.00000
           Y            1.00000   0.00000   0.00000
           Z           -0.00000   1.00000   0.00000
 This molecule is an asymmetric top.
 Rotational symmetry number  2.
 Rotational temperatures (Kelvin)     28.66216    16.24976    10.37037
 Rotational constants (GHZ):         597.22240   338.58996   216.08339
 Zero-point vibrational energy      44162.1 (Joules/Mol)
                                   10.55499 (Kcal/Mol)
 Vibrational temperatures:   2018.72  4256.54  4347.71
          (Kelvin)
 
 Zero-point correction=                           0.016820 (Hartree/Particle)
 Thermal correction to Energy=                    0.019660
 Thermal correction to Enthalpy=                  0.020605
 Thermal correction to Gibbs Free Energy=        -0.000872
 Sum of electronic and zero-point Energies=            -39.102138
 Sum of electronic and thermal Energies=               -39.099298
 Sum of electronic and thermal Enthalpies=             -39.098354
 Sum of electronic and thermal Free Energies=          -39.119830
 
                     E (Thermal)             CV                S
                      KCal/Mol        Cal/Mol-Kelvin    Cal/Mol-Kelvin
 Total                   12.337              6.067             45.200
 Electronic               0.000              0.000              0.000
 Translational            0.889              2.981             33.887
 Rotational               0.889              2.981             11.296
 Vibrational             10.560              0.105              0.018
                       Q            Log10(Q)             Ln(Q)
 Total Bot       0.251717D+01          0.400913          0.923136
 Total V=0       0.137334D+09          8.137778         18.737925
 Vib (Bot)       0.183499D-07         -7.736366        -17.813641
 Vib (V=0)       0.100115D+01          0.000499          0.001149
 Electronic      0.100000D+01          0.000000          0.000000
 Translational   0.208957D+07          6.320057         14.552468
 Rotational      0.656481D+02          1.817222          4.184309
 ***** Axes restored to original set *****
 -------------------------------------------------------------------
 Center     Atomic                   Forces (Hartrees/Bohr)
 Number     Number              X              Y              Z
 -------------------------------------------------------------------
      1        6           0.000075691   -0.000000000    0.000000000
      2        1          -0.000037846   -0.000000000   -0.000064779
      3        1          -0.000037846    0.000000000    0.000064779
 -------------------------------------------------------------------
 Cartesian Forces:  Max     0.000075691 RMS     0.000043444
 FormGI is forming the generalized inverse of G from B-inverse, IUseBI=4.

 GradGradGradGradGradGradGradGradGradGradGradGradGradGradGradGradGradGrad
 Berny optimization.
 Internal  Forces:  Max     0.000147263 RMS     0.000087704
 Search for a local minimum.
 Step number   1 out of a maximum of    2
 All quantities printed in internal units (Hartrees-Bohrs-Radians)
 Second derivative matrix not updated -- analytic derivatives used.
 The second derivative matrix:
                          R1        R2        A1
           R1           0.31546
           R2          -0.00078   0.31546
           A1           0.02545   0.02545   0.15402
 ITU=  0
     Eigenvalues ---    0.14633   0.31624   0.32238
 Angle between quadratic step and forces=  13.64 degrees.
 Linear search not attempted -- first point.
 Iteration  1 RMS(Cart)=  0.00063416 RMS(Int)=  0.00000019
 Iteration  2 RMS(Cart)=  0.00000017 RMS(Int)=  0.00000000
 ClnCor:  largest displacement from symmetrization is 2.78D-15 for atom     3.
 Variable       Old X    -DE/DX   Delta X   Delta X   Delta X     New X
                                 (Linear)    (Quad)   (Total)
    R1        2.09653   0.00003   0.00000   0.00001   0.00001   2.09653
    R2        2.09653   0.00003   0.00000   0.00001   0.00001   2.09653
    A1        1.77547   0.00015   0.00000   0.00095   0.00095   1.77642
         Item               Value     Threshold  Converged?
 Maximum Force            0.000147     0.000450     YES
 RMS     Force            0.000088     0.000300     YES
 Maximum Displacement     0.000636     0.001800     YES
 RMS     Displacement     0.000634     0.001200     YES
 Predicted change in Energy=-7.041423D-08
 Optimization completed.
    -- Stationary point found.
                           ----------------------------
                           !   Optimized Parameters   !
                           ! (Angstroms and Degrees)  !
 --------------------------                            --------------------------
 ! Name  Definition              Value          Derivative Info.                !
 --------------------------------------------------------------------------------
 ! R1    R(1,2)                  1.1094         -DE/DX =    0.0                 !
 ! R2    R(1,3)                  1.1094         -DE/DX =    0.0                 !
 ! A1    A(2,1,3)              101.7268         -DE/DX =    0.0001              !
 --------------------------------------------------------------------------------
 GradGradGradGradGradGradGradGradGradGradGradGradGradGradGradGradGradGrad


 ----------------------------------------------------------------------

 Electric dipole moment (input orientation):
 (Debye = 10**-18 statcoulomb cm , SI units = C m)
                  (au)            (Debye)         (10**-30 SI)
   Tot        0.818430D+00      0.208024D+01      0.693894D+01
   x          0.818430D+00      0.208024D+01      0.693894D+01
   y          0.000000D+00      0.000000D+00      0.000000D+00
   z          0.000000D+00      0.000000D+00      0.000000D+00

 Dipole polarizability, Alpha (input orientation).
 (esu units = cm**3 , SI units = C**2 m**2 J**-1)
 Alpha(0;0):
               (au)            (10**-24 esu)      (10**-40 SI)
   iso        0.132279D+02      0.196017D+01      0.218098D+01
   aniso      0.541580D+01      0.802539D+00      0.892945D+00
   xx         0.140786D+02      0.208624D+01      0.232125D+01
   yx         0.000000D+00      0.000000D+00      0.000000D+00
   yy         0.976371D+01      0.144683D+01      0.160982D+01
   zx         0.000000D+00      0.000000D+00      0.000000D+00
   zy         0.000000D+00      0.000000D+00      0.000000D+00
   zz         0.158413D+02      0.234743D+01      0.261187D+01

 ----------------------------------------------------------------------

 Dipole orientation:
     6          0.00000000         -0.00000000         -0.61950682
     1          1.62615846          0.00000000          0.70376131
[...]
 Vib (Bot)    2  0.111576D+01          0.047569          0.109533
 Vib (Bot)    3  0.109089D+01          0.037782          0.086996
 Vib (V=0)       0.867301D+01          0.938170          2.160216
 Vib (V=0)    1  0.296152D+01          0.471515          1.085703
 Vib (V=0)    2  0.172267D+01          0.236201          0.543873
 Vib (V=0)    3  0.170002D+01          0.230454          0.530640
 Electronic      0.100000D+01          0.000000          0.000000
 Translational   0.228802D+10          9.359460         21.550953
 Rotational      0.437385D+04          3.640864          8.383399
 ***** Axes restored to original set *****
 -------------------------------------------------------------------
 Center     Atomic                   Forces (Hartrees/Bohr)
 Number     Number              X              Y              Z
 -------------------------------------------------------------------
      1        6           0.000075691   -0.000000000    0.000000000
      2        1          -0.000037846   -0.000000000   -0.000064779
      3        1          -0.000037846    0.000000000    0.000064779
 -------------------------------------------------------------------
 Cartesian Forces:  Max     0.000075691 RMS     0.000043444
 FormGI is forming the generalized inverse of G from B-inverse, IUseBI=4.

 ----------------------------------------------------------------------

 Electric dipole moment (input orientation):
 (Debye = 10**-18 statcoulomb cm , SI units = C m)
                  (au)            (Debye)         (10**-30 SI)
   Tot        0.818430D+00      0.208024D+01      0.693894D+01
   x          0.818430D+00      0.208024D+01      0.693894D+01
   y          0.000000D+00      0.000000D+00      0.000000D+00
   z          0.000000D+00      0.000000D+00      0.000000D+00

 Dipole polarizability, Alpha (input orientation).
 (esu units = cm**3 , SI units = C**2 m**2 J**-1)
 Alpha(0;0):
               (au)            (10**-24 esu)      (10**-40 SI)
   iso        0.132279D+02      0.196017D+01      0.218098D+01
   aniso      0.541580D+01      0.802539D+00      0.892945D+00
   xx         0.140786D+02      0.208624D+01      0.232125D+01
   yx         0.000000D+00      0.000000D+00      0.000000D+00
   yy         0.976371D+01      0.144683D+01      0.160982D+01
   zx         0.000000D+00      0.000000D+00      0.000000D+00
   zy         0.000000D+00      0.000000D+00      0.000000D+00
   zz         0.158413D+02      0.234743D+01      0.261187D+01

 ----------------------------------------------------------------------

 Dipole orientation:
     6          0.00000000         -0.00000000         -0.61950682
     1          1.62615846          0.00000000          0.70376131
     1         -1.62615846         -0.00000000          0.70376131

 Electric dipole moment (dipole orientation):
 (Debye = 10**-18 statcoulomb cm , SI units = C m)
                  (au)            (Debye)         (10**-30 SI)
   Tot        0.818430D+00      0.208024D+01      0.693894D+01
   x          0.000000D+00      0.000000D+00      0.000000D+00
   y          0.000000D+00      0.000000D+00      0.000000D+00
   z          0.818430D+00      0.208024D+01      0.693894D+01

 Dipole polarizability, Alpha (dipole orientation).
 (esu units = cm**3 , SI units = C**2 m**2 J**-1)
 Alpha(0;0):
               (au)            (10**-24 esu)      (10**-40 SI)
   iso        0.132279D+02      0.196017D+01      0.218098D+01
   aniso      0.541580D+01      0.802539D+00      0.892945D+00
   xx         0.158413D+02      0.234743D+01      0.261187D+01
   yx         0.000000D+00      0.000000D+00      0.000000D+00
   yy         0.976371D+01      0.144683D+01      0.160982D+01
   zx         0.000000D+00      0.000000D+00      0.000000D+00
   zy         0.000000D+00      0.000000D+00      0.000000D+00
   zz         0.140786D+02      0.208624D+01      0.232125D+01

 ----------------------------------------------------------------------

 This type of calculation cannot be archived.


 Make no judgements where you have no compassion.
                               -- Anne McCaffrey
 Job cpu time:       0 days  0 hours  0 minutes  0.5 seconds.
 Elapsed time:       0 days  0 hours  0 minutes  0.4 seconds.
 File lengths (MBytes):  RWF=      6 Int=      0 D2E=      0 Chk=      1 Scr=      1
 Normal termination of Gaussian 16 at Tue Jul 26 02:15:01 2022.
 Initial command:
 /software//g16/l1.exe "/home/tmp/g16/Gau-756065.inp" -scrdir="/home/tmp/g16/"
 Entering Link 1 = /software//g16/l1.exe PID=    769173.
  
 Copyright (c) 1988-2019, Gaussian, Inc.  All Rights Reserved.
  
 This is part of the Gaussian(R) 16 program.  It is based on
 the Gaussian(R) 09 system (copyright 2009, Gaussian, Inc.),
 the Gaussian(R) 03 system (copyright 2003, Gaussian, Inc.),
 the Gaussian(R) 98 system (copyright 1998, Gaussian, Inc.),
 the Gaussian(R) 94 system (copyright 1995, Gaussian, Inc.),
 the Gaussian 92(TM) system (copyright 1992, Gaussian, Inc.),
 the Gaussian 90(TM) system (copyright 1990, Gaussian, Inc.),
 the Gaussian 88(TM) system (copyright 1988, Gaussian, Inc.),
 the Gaussian 86(TM) system (copyright 1986, Carnegie Mellon
 University), and the Gaussian 82(TM) system (copyright 1983,
 Carnegie Mellon University). Gaussian is a federally registered
 trademark of Gaussian, Inc.
  
 This software contains proprietary and confidential information,
 including trade secrets, belonging to Gaussian, Inc.
  
 This software is provided under written license and may be
 used, copied, transmitted, or stored only in accord with that
 written license.
  
 The following legend is applicable only to US Government
 contracts under FAR:
  
                    RESTRICTED RIGHTS LEGEND
  
 Use, reproduction and disclosure by the US Government is
 subject to restrictions as set forth in subparagraphs (a)
 and (c) of the Commercial Computer Software - Restricted
 Rights clause in FAR 52.227-19.
  
 Gaussian, Inc.
 340 Quinnipiac St., Bldg. 40, Wallingford CT 06492
  
  
 ---------------------------------------------------------------
 Warning -- This program may not be used in any manner that
 competes with the business of Gaussian, Inc. or will provide
 assistance to any competitor of Gaussian, Inc.  The licensee
 of this program is prohibited from giving any competitor of
 Gaussian, Inc. access to this program.  By using this program,
 the user acknowledges that Gaussian, Inc. is engaged in the
 business of creating and licensing software in the field of
 computational chemistry and represents and warrants to the
 licensee that it is not a competitor of Gaussian, Inc. and that
 it will not use this program in any manner prohibited above.
 ---------------------------------------------------------------
  

 Cite this work as:
 Gaussian 16, Revision C.01,
 M. J. Frisch, G. W. Trucks, H. B. Schlegel, G. E. Scuseria, 
 M. A. Robb, J. R. Cheeseman, G. Scalmani, V. Barone, 
 G. A. Petersson, H. Nakatsuji, X. Li, M. Caricato, A. V. Marenich, 
 J. Bloino, B. G. Janesko, R. Gomperts, B. Mennucci, H. P. Hratchian, 
 J. V. Ortiz, A. F. Izmaylov, J. L. Sonnenberg, D. Williams-Young, 
 F. Ding, F. Lipparini, F. Egidi, J. Goings, B. Peng, A. Petrone, 
 T. Henderson, D. Ranasinghe, V. G. Zakrzewski, J. Gao, N. Rega, 
 G. Zheng, W. Liang, M. Hada, M. Ehara, K. Toyota, R. Fukuda, 
 J. Hasegawa, M. Ishida, T. Nakajima, Y. Honda, O. Kitao, H. Nakai, 
 T. Vreven, K. Throssell, J. A. Montgomery, Jr., J. E. Peralta, 
 F. Ogliaro, M. J. Bearpark, J. J. Heyd, E. N. Brothers, K. N. Kudin, 
 V. N. Staroverov, T. A. Keith, R. Kobayashi, J. Normand, 
 K. Raghavachari, A. P. Rendell, J. C. Burant, S. S. Iyengar, 
 J. Tomasi, M. Cossi, J. M. Millam, M. Klene, C. Adamo, R. Cammi, 
 J. W. Ochterski, R. L. Martin, K. Morokuma, O. Farkas, 
 J. B. Foresman, and D. J. Fox, Gaussian, Inc., Wallingford CT, 2019.
 
 ******************************************
 Gaussian 16:  ES64L-G16RevC.01  3-Jul-2019
                26-Jul-2022 
 ******************************************
 %chk=[CH2]-T.chk
 ----------------------------------------------------------------------
 # freq=(readfc,hinderedrotor) temp=5000 press=0.987 geom=allcheck gues
 s=read
 ----------------------------------------------------------------------
 1/18=20,29=7,38=1,112=5000000,113=-987000,172=1/1;
 2/12=2,40=1/2;
 7/8=2001,25=11/16;
 99/5=2/99;
 Structure from the checkpoint file:  "[CH2]-T.chk"
 ---------
 [CH2]-T_1
 ---------
 Charge =  0 Multiplicity = 1
 Redundant internal coordinates found in file.  (old form).
 C,0,-0.3278288917,0.,0.
 H,0,0.3724144458,0.,-0.8605259965
 H,0,0.3724144458,0.,0.8605259965
 Recover connectivity data from disk.
                           ----------------------------
                           !    Current Parameters    !
                           ! (Angstroms and Degrees)  !
 --------------------------                            --------------------------
 ! Name  Definition              Value          Derivative Info.                !
 --------------------------------------------------------------------------------
 ! R1    R(1,2)                  1.1094         estimate D2E/DX2                !
 ! R2    R(1,3)                  1.1094         estimate D2E/DX2                !
 ! A1    A(2,1,3)              101.7268         estimate D2E/DX2                !
 --------------------------------------------------------------------------------
                          Input orientation:                          
 ---------------------------------------------------------------------
 Center     Atomic      Atomic             Coordinates (Angstroms)
 Number     Number       Type             X           Y           Z
 ---------------------------------------------------------------------
      1          6           0       -0.327829   -0.000000   -0.000000
      2          1           0        0.372414    0.000000   -0.860526
      3          1           0        0.372414   -0.000000    0.860526
 ---------------------------------------------------------------------
                    Distance matrix (angstroms):
                    1          2          3
     1  C    0.000000
     2  H    1.109435   0.000000
     3  H    1.109435   1.721052   0.000000
 Stoichiometry    CH2
 Framework group  C2V[C2(C),SGV(H2)]
 Deg. of freedom     2
 Full point group                 C2V     NOp   4
 Largest Abelian subgroup         C2V     NOp   4
 Largest concise Abelian subgroup C2      NOp   2
                         Standard orientation:                         
 ---------------------------------------------------------------------
 Center     Atomic      Atomic             Coordinates (Angstroms)
 Number     Number       Type             X           Y           Z
 ---------------------------------------------------------------------
      1          6           0       -0.000000    0.000000    0.175061
      2          1           0       -0.000000    0.860526   -0.525183
      3          1           0       -0.000000   -0.860526   -0.525183
 ---------------------------------------------------------------------
 Rotational constants (GHZ):         597.2224021         338.5899561         216.0833901
 Electric field and nuclear coordinate derivatives read from checkpoint file.
 Rotating derivatives to standard orientation.
 Full mass-weighted force constant matrix:
 Low frequencies ---  -72.3448   -0.0002   -0.0001    0.0007   22.6378   59.3127
 Low frequencies --- 1403.0778 2958.4413 3021.8066
 Diagonal vibrational polarizability:
        0.0000000       0.2033078       0.2464495

 rotorrotorrotorrotorrotorrotorrotorrotorrotorrotorrotor

           Hindered Internal Rotation Analysis

 rotorrotorrotorrotorrotorrotorrotorrotorrotorrotorrotor

 Internal coordinate list sorted
 Checking for planar centers
 Checking for ring deformation
 Checking reduced barrier height
 Cut-off : V/RT =      2.013
 Number of internal rotation degrees of freedom =             0
 No hindered rotor corrections are necessary.

 Harmonic frequencies (cm**-1), IR intensities (KM/Mole), Raman scattering
 activities (A**4/AMU), depolarization ratios for plane and unpolarized
 incident light, reduced masses (AMU), force constants (mDyne/A),
 and normal coordinates:
                      1                      2                      3
                     ?A                     ?A                     ?B
 Frequencies --   1403.0778              2958.4413              3021.8066
 Red. masses --      1.1008                 1.0578                 1.1003
 Frc consts  --      1.2768                 5.4548                 5.9198
 IR Inten    --      0.1853                79.3292                68.9849
  Atom  AN      X      Y      Z        X      Y      Z        X      Y      Z
     1   6    -0.00   0.00  -0.10     0.00  -0.00   0.07    -0.00  -0.10  -0.00
     2   1     0.00   0.46   0.57     0.00   0.60  -0.41    -0.00   0.57  -0.47
     3   1     0.00  -0.46   0.57    -0.00  -0.60  -0.41     0.00   0.57   0.47

 -------------------
 - Thermochemistry -
 -------------------
 Temperature  5000.000 Kelvin.  Pressure   0.98700 Atm.
 Atom     1 has atomic number  6 and mass  12.00000
 Atom     2 has atomic number  1 and mass   1.00783
 Atom     3 has atomic number  1 and mass   1.00783
 Molecular mass:    14.01565 amu.
 Principal axes and moments of inertia in atomic units:
                           1         2         3
     Eigenvalues --     3.02189   5.33017   8.35206
           X           -0.00000   0.00000   1.00000
           Y            1.00000   0.00000   0.00000
           Z           -0.00000   1.00000   0.00000
 This molecule is an asymmetric top.
 Rotational symmetry number  2.
 Rotational temperatures (Kelvin)     28.66216    16.24976    10.37037
 Rotational constants (GHZ):         597.22240   338.58996   216.08339
 Zero-point vibrational energy      44162.1 (Joules/Mol)
                                   10.55499 (Kcal/Mol)
 Warning -- explicit consideration of   3 degrees of freedom as
           vibrations may cause significant error
 Vibrational temperatures:   2018.72  4256.54  4347.71
          (Kelvin)
 
 Zero-point correction=                           0.016820 (Hartree/Particle)
 Thermal correction to Energy=                    0.097149
 Thermal correction to Enthalpy=                  0.112983
 Thermal correction to Gibbs Free Energy=        -0.493307
 Sum of electronic and zero-point Energies=            -39.102138
 Sum of electronic and thermal Energies=               -39.021809
 Sum of electronic and thermal Enthalpies=             -39.005975
 Sum of electronic and thermal Free Energies=          -39.612265
 
                     E (Thermal)             CV                S
                      KCal/Mol        Cal/Mol-Kelvin    Cal/Mol-Kelvin
 Total                   60.962             11.660             76.091
 Electronic               0.000              0.000              0.000
 Translational           14.904              2.981             47.895
 Rotational              14.904              2.981             19.701
 Vibrational             31.154              5.698              8.495
 Vibration     1         10.071              1.960              3.803
 Vibration     2         10.529              1.871              2.366
 Vibration     3         10.554              1.867              2.326
                       Q            Log10(Q)             Ln(Q)
 Total Bot       0.339124D+14         13.530359         31.154803
 Total V=0       0.981089D+14         13.991708         32.217099
 Vib (Bot)       0.312564D+01          0.494940          1.139640
 Vib (Bot)    1  0.246008D+01          0.390949          0.900193
 Vib (Bot)    2  0.113993D+01          0.056878          0.130965
 Vib (Bot)    3  0.111458D+01          0.047113          0.108482
 Vib (V=0)       0.904251D+01          0.956289          2.201936
 Vib (V=0)    1  0.301038D+01          0.478621          1.102065
 Vib (V=0)    2  0.174476D+01          0.241737          0.556619
 Vib (V=0)    3  0.172160D+01          0.235931          0.543252
 Electronic      0.100000D+01          0.000000          0.000000
 Translational   0.240655D+10          9.381395         21.601459
 Rotational      0.450843D+04          3.654025          8.413704
 ***** Axes restored to original set *****
 -------------------------------------------------------------------
 Center     Atomic                   Forces (Hartrees/Bohr)
 Number     Number              X              Y              Z
 -------------------------------------------------------------------
      1        6           0.000075691   -0.000000000    0.000000000
      2        1          -0.000037846   -0.000000000   -0.000064779
      3        1          -0.000037846    0.000000000    0.000064779
 -------------------------------------------------------------------
 Cartesian Forces:  Max     0.000075691 RMS     0.000043444
 FormGI is forming the generalized inverse of G from B-inverse, IUseBI=4.

 ----------------------------------------------------------------------

 Electric dipole moment (input orientation):
 (Debye = 10**-18 statcoulomb cm , SI units = C m)
                  (au)            (Debye)         (10**-30 SI)
   Tot        0.818430D+00      0.208024D+01      0.693894D+01
   x          0.818430D+00      0.208024D+01      0.693894D+01
   y          0.000000D+00      0.000000D+00      0.000000D+00
   z          0.000000D+00      0.000000D+00      0.000000D+00

 Dipole polarizability, Alpha (input orientation).
 (esu units = cm**3 , SI units = C**2 m**2 J**-1)
 Alpha(0;0):
               (au)            (10**-24 esu)      (10**-40 SI)
   iso        0.132279D+02      0.196017D+01      0.218098D+01
   aniso      0.541580D+01      0.802539D+00      0.892945D+00
   xx         0.140786D+02      0.208624D+01      0.232125D+01
   yx         0.000000D+00      0.000000D+00      0.000000D+00
   yy         0.976371D+01      0.144683D+01      0.160982D+01
   zx         0.000000D+00      0.000000D+00      0.000000D+00
   zy         0.000000D+00      0.000000D+00      0.000000D+00
   zz         0.158413D+02      0.234743D+01      0.261187D+01

 ----------------------------------------------------------------------

 Dipole orientation:
     6          0.00000000         -0.00000000         -0.61950682
     1          1.62615846          0.00000000          0.70376131
     1         -1.62615846         -0.00000000          0.70376131

 Electric dipole moment (dipole orientation):
 (Debye = 10**-18 statcoulomb cm , SI units = C m)
                  (au)            (Debye)         (10**-30 SI)
   Tot        0.818430D+00      0.208024D+01      0.693894D+01
   x          0.000000D+00      0.000000D+00      0.000000D+00
   y          0.000000D+00      0.000000D+00      0.000000D+00
   z          0.818430D+00      0.208024D+01      0.693894D+01

 Dipole polarizability, Alpha (dipole orientation).
 (esu units = cm**3 , SI units = C**2 m**2 J**-1)
 Alpha(0;0):
               (au)            (10**-24 esu)      (10**-40 SI)
   iso        0.132279D+02      0.196017D+01      0.218098D+01
   aniso      0.541580D+01      0.802539D+00      0.892945D+00
   xx         0.158413D+02      0.234743D+01      0.261187D+01
   yx         0.000000D+00      0.000000D+00      0.000000D+00
   yy         0.976371D+01      0.144683D+01      0.160982D+01
   zx         0.000000D+00      0.000000D+00      0.000000D+00
   zy         0.000000D+00      0.000000D+00      0.000000D+00
   zz         0.140786D+02      0.208624D+01      0.232125D+01

 ----------------------------------------------------------------------

 This type of calculation cannot be archived.


 QED = W**5 (WHICH WAS WHAT WE WANTED)
 Job cpu time:       0 days  0 hours  0 minutes  0.5 seconds.
 Elapsed time:       0 days  0 hours  0 minutes  0.5 seconds.
 File lengths (MBytes):  RWF=      6 Int=      0 D2E=      0 Chk=      1 Scr=      1
 Normal termination of Gaussian 16 at Tue Jul 26 02:15:02 2022.
