
 Primary working directories    : /home/tmp/molpro/molpro.KCBfR5hBaP
 Secondary working directories  : /home/tmp/molpro/molpro.KCBfR5hBaP
 Wavefunction directory         : /root/wfu/
 Main file repository           : /home/tmp/molpro/molpro.KCBfR5hBaP/

 id        : scuxyl

 Nodes                nprocs
 localhost.localdomain   16

 Using customized tuning parameters: mindgm=1; mindgv=20; mindgc=4; mindgr=1; noblas=0; minvec=7
 default implementation of scratch files=sf  


 Variables initialized (934), CPU time= 0.01 sec
 ***,C=C(C)CC
 memory,1250,m
 geometry={
 C        1.312213        0.808038        0.000000
 C        0.000000        0.553940        0.000000
 C       -1.019902        1.667303        0.000000
 C       -0.586816       -0.843076        0.000000
 C        0.407294       -2.005531        0.000000
 H        2.057703        0.020119        0.000000
 H        1.686937        1.827642        0.000000
 H       -0.546195        2.652398        0.000000
 H       -1.674232        1.603363       -0.879204
 H       -1.674232        1.603363        0.879204
 H       -1.253652       -0.933643        0.870634
 H       -1.253652       -0.933643       -0.870634
 H       -0.122212       -2.963130        0.000000
 H        1.051400       -1.980261       -0.884747
 H        1.051400       -1.980261        0.884747
 }
 
 basis=vdz
 {hf;wf,40,spin,0,charge,0,state,1,maxit,100}
 {ccsd(t);maxit,100}
 
 basis=vtz
 hf
 ccsd(t)
 
 basis=vqz
 hf
 Commands  initialized (763), CPU time= 0.02 sec, 617 directives.
 Default parameters read. Elapsed time= 0.08 sec

 Checking input...
 Passed
1


                                         ***  PROGRAM SYSTEM MOLPRO  ***
                                       Copyright, TTI GmbH Stuttgart, 2015
                                    Version 2019.2 linked Jun  8 2019 11:26:33


 **********************************************************************************************************************************
 LABEL *   C=C(C)CC                                                                      
  64 bit mpp version                                                                     DATE: 06-May-22          TIME: 00:43:34  
 **********************************************************************************************************************************

 SHA1:             8135a10abc80eafa5b3ae28ffc55be4890dc4c84
 **********************************************************************************************************************************

Geometry recognized as XYZ


 Variable memory set to 1250000000 words,  buffer space 

 SETTING BASIS          =    VDZ


 Recomputing integrals since basis changed


 Using spherical harmonics

 Library entry C      S cc-pVDZ              selected for orbital group  1
 Library entry C      P cc-pVDZ              selected for orbital group  1
 Library entry C      D cc-pVDZ              selected for orbital group  1
 Library entry H      S cc-pVDZ              selected for orbital group  2
 Library entry H      P cc-pVDZ              selected for orbital group  2


 PROGRAM * SEWARD (Integral evaluation for generally contracted gaussian basis sets)     Author: Roland Lindh, 1990

 Geometry written to block  1 of record 700


 Point group  Cs  



 ATOMIC COORDINATES

 NR  ATOM    CHARGE       X              Y              Z

   1  C       6.00    2.479723187    1.526970518    0.000000000
   2  C       6.00    0.000000000    1.046794889    0.000000000
   3  C       6.00   -1.927335454    3.150746037    0.000000000
   4  C       6.00   -1.108921526   -1.593182742    0.000000000
   5  C       6.00    0.769674112   -3.789904324    0.000000000
   6  H       1.00    3.888495116    0.038019400    0.000000000
   7  H       1.00    3.187848919    3.453742834    0.000000000
   8  H       1.00   -1.032158961    5.012305793    0.000000000
   9  H       1.00   -3.163839949    3.029916948   -1.661454768
  10  H       1.00   -3.163839949    3.029916948    1.661454768
  11  H       1.00   -2.369058936   -1.764329568    1.645259815
  12  H       1.00   -2.369058936   -1.764329568   -1.645259815
  13  H       1.00   -0.230947209   -5.599504171    0.000000000
  14  H       1.00    1.986858047   -3.742150945   -1.671929520
  15  H       1.00    1.986858047   -3.742150945    1.671929520

 Bond lengths in Bohr (Angstrom)

 1-2  2.525786159  1-6  2.049783837  1-7  2.052777048  2-3  2.853284490  2-4  2.863422575
     ( 1.336588475)     ( 1.084698894)     ( 1.086282833)     ( 1.509893128)     ( 1.515257972)

  3- 8  2.065610244   3- 9  2.074602367   3-10  2.074602367   4- 5  2.890451051   4-11  2.079451222
       ( 1.093073868)       ( 1.097832294)       ( 1.097832294)       ( 1.529560826)       ( 1.100398198)

  4-12  2.079451222   5-13  2.067823647   5-14  2.068614376   5-15  2.068614376
       ( 1.100398198)       ( 1.094245150)       ( 1.094663586)       ( 1.094663586)

 Bond angles

  1-2-3  121.53223736   1-2-4  123.74398829   2-1-6  122.45587886   2-1-7  121.13851424

  2- 3- 8  111.82688386   2- 3- 9  111.07888112   2- 3-10  111.07888112   2- 4- 5  116.67872978

  2- 4-11  108.09333733   2- 4-12  108.09333733   3- 2- 4  114.72377435   4- 5-13  110.52307610

  4- 5-14  111.40014253   4- 5-15  111.40014253   5- 4-11  109.34801085   5- 4-12  109.34801085

  6- 1- 7  116.40560690   8- 3- 9  108.10664560   8- 3-10  108.10664560   9- 3-10  106.42356916

 11- 4-12  104.59541083  13- 5-14  107.75405901  13- 5-15  107.75405901  14- 5-15  107.84796601

 NUCLEAR CHARGE:                   40
 NUMBER OF PRIMITIVE AOS:         205
 NUMBER OF SYMMETRY AOS:          200
 NUMBER OF CONTRACTIONS:          120   (   81A'  +   39A"  )
 NUMBER OF CORE ORBITALS:           5   (    5A'  +    0A"  )
 NUMBER OF VALENCE ORBITALS:       30   (   22A'  +    8A"  )


 NUCLEAR REPULSION ENERGY  175.08341455


 Eigenvalues of metric

         1 0.182E-02 0.215E-02 0.319E-02 0.575E-02 0.151E-01 0.166E-01 0.182E-01 0.225E-01
         2 0.223E-01 0.337E-01 0.367E-01 0.387E-01 0.435E-01 0.507E-01 0.921E-01 0.107E+00


 Contracted 2-electron integrals neglected if value below      1.0D-11
 AO integral compression algorithm  1   Integral accuracy      1.0D-11

     61.080 MB (compressed) written to integral file ( 52.1%)

     Node minimum: 3.146 MB, node maximum: 4.194 MB


 NUMBER OF SORTED TWO-ELECTRON INTEGRALS:     841488.     BUFFER LENGTH:  32768
 NUMBER OF SEGMENTS:   1  SEGMENT LENGTH:     841488      RECORD LENGTH: 524288

 Memory used in sort:       1.40 MW

 SORT1 READ    14510751. AND WROTE      797003. INTEGRALS IN      3 RECORDS. CPU TIME:     0.24 SEC, REAL TIME:     0.26 SEC
 SORT2 READ    12906360. AND WROTE    13591911. INTEGRALS IN    240 RECORDS. CPU TIME:     0.02 SEC, REAL TIME:     0.04 SEC

 Node minimum:      840723.  Node maximum:      853764. integrals

 OPERATOR DM      FOR CENTER  0  COORDINATES:    0.000000    0.000000    0.000000


 **********************************************************************************************************************************
 DATASETS  * FILE   NREC   LENGTH (MB)   RECORD NAMES
              1      18       30.51       500      610      700      900      950      970     1000      129      960     1100   
                                          VAR    BASINP    GEOM    SYMINP    ZMAT    AOBASIS   BASIS     P2S    ABASIS      S 
                                         1400     1410     1200     1210     1080     1600     1650     1700   
                                           T        V       H0       H01     AOSYM     SMH    MOLCAS    OPER   

 PROGRAMS   *        TOTAL       INT
 CPU TIMES  *         1.76      1.56
 REAL TIME  *         2.58 SEC
 DISK USED  *        31.05 MB (local),      754.61 MB (total)
 GA USED    *         0.00 MB       (max)       0.00 MB       (current)
 **********************************************************************************************************************************


 PROGRAM * RHF-SCF (CLOSED SHELL)       Authors: W. Meyer, H.-J. Werner


 NUMBER OF ELECTRONS:      20+   20-
 CONVERGENCE THRESHOLDS:    1.00E-05 (Density)    1.00E-07 (Energy)
 MAX. NUMBER OF ITERATIONS:       60
 INTERPOLATION TYPE:            DIIS
 INTERPOLATION STEPS:              2 (START)      1 (STEP)
 LEVEL SHIFTS:                  0.00 (CLOSED)  0.00 (OPEN) 



 Orbital guess generated from atomic densities. Full valence occupancy:   27   8

 Molecular orbital dump at record        2100.2

 Initial occupancy:  16   4

 ITERATION    DDIFF          GRAD             ENERGY        2-EL.EN.            DIPOLE MOMENTS         DIIS   ORB.
    1      0.000D+00      0.000D+00      -195.08994539    479.640214   -0.57556   -0.12353    0.00000    0    start
    2      0.000D+00      0.583D-02      -195.15178835    475.360627   -0.17088   -0.05185    0.00000    1    diag
    3      0.128D-01      0.211D-02      -195.15862208    477.080616   -0.26542   -0.06875    0.00000    2    diag
    4      0.466D-02      0.651D-03      -195.15962197    476.690974   -0.21404   -0.06134    0.00000    3    diag
    5      0.170D-02      0.913D-04      -195.15963997    476.688191   -0.21483   -0.05870    0.00000    4    diag
    6      0.266D-03      0.309D-04      -195.15964188    476.696344   -0.21142   -0.05859    0.00000    5    diag
    7      0.850D-04      0.857D-05      -195.15964205    476.694335   -0.21121   -0.05840    0.00000    6    diag
    8      0.234D-04      0.285D-05      -195.15964209    476.695755   -0.21068   -0.05825    0.00000    7    diag
    9      0.831D-05      0.159D-05      -195.15964209    476.695306   -0.21066   -0.05824    0.00000    0    orth

 Final occupancy:  16   4

 !RHF STATE  1.1 Energy              -195.159642094130
 Nuclear energy                       175.08341455
 One-electron energy                 -608.59070984
 Two-electron energy                  238.34765319
 Virial quotient                       -1.00158844
 !RHF STATE  1.1 Dipole moment         -0.21065729    -0.05824094     0.00000000
 Dipole moment /Debye                  -0.53540234    -0.14802402     0.00000000

 Orbital energies:

         1.1          2.1          3.1          4.1          5.1          6.1          7.1          8.1          9.1         10.1
    -11.239057   -11.231084   -11.226021   -11.220851   -11.214045    -1.095069    -0.997314    -0.926790    -0.858030    -0.707693

        11.1         12.1         13.1         14.1         15.1         16.1         17.1         18.1
     -0.629992    -0.589792    -0.545694    -0.513682    -0.487119    -0.463166     0.181511     0.208577

         1.2          2.2          3.2          4.2          5.2          6.2
     -0.613190    -0.556921    -0.488078    -0.344115     0.177199     0.253222


 HOMO      4.2    -0.344115 =      -9.3638eV
 LUMO      5.2     0.177199 =       4.8218eV
 LUMO-HOMO         0.521314 =      14.1857eV


 **********************************************************************************************************************************
 DATASETS  * FILE   NREC   LENGTH (MB)   RECORD NAMES
              1      18       30.52       500      610      700      900      950      970     1000      129      960     1100   
                                          VAR    BASINP    GEOM    SYMINP    ZMAT    AOBASIS   BASIS     P2S    ABASIS      S 
                                         1400     1410     1200     1210     1080     1600     1650     1700   
                                           T        V       H0       H01     AOSYM     SMH    MOLCAS    OPER   

              2       4        3.17       700     1000      520     2100   
                                         GEOM     BASIS   MCVARS     RHF  

 PROGRAMS   *        TOTAL    HF-SCF       INT
 CPU TIMES  *         1.94      0.18      1.56
 REAL TIME  *         2.82 SEC
 DISK USED  *        34.27 MB (local),      806.09 MB (total)
 SF USED    *         0.03 MB
 GA USED    *         0.00 MB       (max)       0.00 MB       (current)
 **********************************************************************************************************************************


 PROGRAM * CCSD (Closed-shell coupled cluster)     Authors: C. Hampel, H.-J. Werner, 1991, M. Deegan, P.J. Knowles, 1992


 Convergence thresholds:  THRVAR = 1.00D-08  THRDEN = 1.00D-06

 CCSD(T)     terms to be evaluated (factor= 1.000)


 Number of core orbitals:           5 (   5   0 )
 Number of closed-shell orbitals:  15 (  11   4 )
 Number of external orbitals:     100 (  65  35 )

 Molecular orbitals read from record     2100.2  Type=RHF/CANONICAL (state 1.1)

 Number of N-1 electron functions:              15
 Number of N-2 electron functions:             120
 Number of singly external CSFs:               855
 Number of doubly external CSFs:            574275
 Total number of CSFs:                      575131

 Length of J-op  integral file:               0.00 MB
 Length of K-op  integral file:               0.55 MB
 Length of 3-ext integral record:             0.00 MB

 Memory could be reduced to 10.35 Mwords without degradation in triples

 Integral transformation finished. Total CPU:   0.46 sec, npass=  1  Memory used:   4.64 MW

 Reference energy:                   -195.15964209

 MP2 singlet pair energy:              -0.46279925
 MP2 triplet pair energy:              -0.24387873
 MP2 correlation energy:               -0.70667798
 MP2 total energy:                   -195.86632007

 SCS-MP2 correlation energy:           -0.70710586   (PS=  1.200000  PT=  0.333333)
 SCS-MP2 total energy:               -195.86674796

 ITER.      SQ.NORM     CORR.ENERGY   TOTAL ENERGY   ENERGY CHANGE        DEN1      VAR(S)    VAR(P)  DIIS     TIME  TIME/IT
   1      1.28240005    -0.76783869  -195.92748078    -0.06116071    -0.04025475  0.22D-02  0.47D-02  1  1     0.71     0.25
   2      1.30721096    -0.77307574  -195.93271784    -0.00523706    -0.02272168  0.58D-04  0.47D-03  2  2     0.97     0.28
   3      1.31309331    -0.77333904  -195.93298113    -0.00026329    -0.00291859  0.17D-04  0.42D-04  3  3     1.23     0.28
   4      1.31531252    -0.77342778  -195.93306988    -0.00008874    -0.00073117  0.12D-05  0.40D-05  4  4     1.48     0.29
   5      1.31581103    -0.77343328  -195.93307537    -0.00000550    -0.00011196  0.14D-06  0.43D-06  5  5     1.74     0.29
   6      1.31590442    -0.77342782  -195.93306991     0.00000546    -0.00001408  0.28D-07  0.29D-07  6  6     1.99     0.29
   7      1.31591860    -0.77342842  -195.93307052    -0.00000060     0.00000201  0.46D-08  0.31D-08  6  2     2.24     0.29
   8      1.31592321    -0.77342828  -195.93307037     0.00000014    -0.00000068  0.84D-09  0.32D-09  6  1     2.50     0.29

 Norm of t1 vector:      0.06599088      S-energy:    -0.00000075      T1 diagnostic:  0.00851939
                                                                       D1 diagnostic:  0.03000200

 Doubles amplitudes (print threshold =  0.500E-01):

         I         J         SYM. A    SYM. B    A         B      T(IJ, AB)

        15        15         2         2         1         1     -0.10157737


 Total CPU time for triples:      2.05 sec


 RESULTS
 =======

  Reference energy                   -195.159642094129
  CCSD singlet pair energy             -0.547570182250
  CCSD triplet pair energy             -0.225857348649
  CCSD correlation energy              -0.773428279417

  Triples (T) contribution             -0.024986627967
  Total correlation energy             -0.798414907385

  CCSD total energy                  -195.933070373546
  CCSD[T] energy                     -195.958608010204
  CCSD-T energy                      -195.957807538705
 !CCSD(T) total energy               -195.958057001513

 Timing summary (sec):

 STEP                 CPU(USER)    SYS     CPU(TOT)    WALL
 Transformation          0.47      0.14      0.61      0.61
 CCSD iterations         2.04      0.32      2.36      2.38
 Triples                 2.05      0.09      2.14      2.15

 Program statistics:

 Available memory in ccsd:              1249999084
 Min. memory needed in ccsd:               1541461
 Max. memory used in ccsd:                 2042542
 Max. memory used in cckext:               2128289 ( 8 integral passes)



 **********************************************************************************************************************************
 DATASETS  * FILE   NREC   LENGTH (MB)   RECORD NAMES
              1      19       72.11       500      610      700      900      950      970     1000      129      960     1100   
                                          VAR    BASINP    GEOM    SYMINP    ZMAT    AOBASIS   BASIS     P2S    ABASIS      S 
                                         1400     1410     1200     1210     1080     1600     1650     1700     1380   
                                           T        V       H0       H01     AOSYM     SMH    MOLCAS    OPER     JKOP   

              2       4        3.17       700     1000      520     2100   
                                         GEOM     BASIS   MCVARS     RHF  

 PROGRAMS   *        TOTAL   CCSD(T)    HF-SCF       INT
 CPU TIMES  *         6.53      4.59      0.18      1.56
 REAL TIME  *         8.01 SEC
 DISK USED  *       134.40 MB (local),        1.52 GB (total)
 SF USED    *        94.95 MB
 GA USED    *         0.00 MB       (max)       0.00 MB       (current)
 **********************************************************************************************************************************
 SETTING BASIS          =    VTZ


 Recomputing integrals since basis changed


 Using spherical harmonics

 Library entry C      S cc-pVTZ              selected for orbital group  1
 Library entry C      P cc-pVTZ              selected for orbital group  1
 Library entry C      D cc-pVTZ              selected for orbital group  1
 Library entry C      F cc-pVTZ              selected for orbital group  1
 Library entry H      S cc-pVTZ              selected for orbital group  2
 Library entry H      P cc-pVTZ              selected for orbital group  2
 Library entry H      D cc-pVTZ              selected for orbital group  2


 PROGRAM * SEWARD (Integral evaluation for generally contracted gaussian basis sets)     Author: Roland Lindh, 1990

 Geometry written to block  1 of record 700


 Point group  Cs  



 ATOMIC COORDINATES

 NR  ATOM    CHARGE       X              Y              Z

   1  C       6.00    2.479723187    1.526970518    0.000000000
   2  C       6.00    0.000000000    1.046794889    0.000000000
   3  C       6.00   -1.927335454    3.150746037    0.000000000
   4  C       6.00   -1.108921526   -1.593182742    0.000000000
   5  C       6.00    0.769674112   -3.789904324    0.000000000
   6  H       1.00    3.888495116    0.038019400    0.000000000
   7  H       1.00    3.187848919    3.453742834    0.000000000
   8  H       1.00   -1.032158961    5.012305793    0.000000000
   9  H       1.00   -3.163839949    3.029916948   -1.661454768
  10  H       1.00   -3.163839949    3.029916948    1.661454768
  11  H       1.00   -2.369058936   -1.764329568    1.645259815
  12  H       1.00   -2.369058936   -1.764329568   -1.645259815
  13  H       1.00   -0.230947209   -5.599504171    0.000000000
  14  H       1.00    1.986858047   -3.742150945   -1.671929520
  15  H       1.00    1.986858047   -3.742150945    1.671929520

 Bond lengths in Bohr (Angstrom)

 1-2  2.525786159  1-6  2.049783837  1-7  2.052777048  2-3  2.853284490  2-4  2.863422575
     ( 1.336588475)     ( 1.084698894)     ( 1.086282833)     ( 1.509893128)     ( 1.515257972)

  3- 8  2.065610244   3- 9  2.074602367   3-10  2.074602367   4- 5  2.890451051   4-11  2.079451222
       ( 1.093073868)       ( 1.097832294)       ( 1.097832294)       ( 1.529560826)       ( 1.100398198)

  4-12  2.079451222   5-13  2.067823647   5-14  2.068614376   5-15  2.068614376
       ( 1.100398198)       ( 1.094245150)       ( 1.094663586)       ( 1.094663586)

 Bond angles

  1-2-3  121.53223736   1-2-4  123.74398829   2-1-6  122.45587886   2-1-7  121.13851424

  2- 3- 8  111.82688386   2- 3- 9  111.07888112   2- 3-10  111.07888112   2- 4- 5  116.67872978

  2- 4-11  108.09333733   2- 4-12  108.09333733   3- 2- 4  114.72377435   4- 5-13  110.52307610

  4- 5-14  111.40014253   4- 5-15  111.40014253   5- 4-11  109.34801085   5- 4-12  109.34801085

  6- 1- 7  116.40560690   8- 3- 9  108.10664560   8- 3-10  108.10664560   9- 3-10  106.42356916

 11- 4-12  104.59541083  13- 5-14  107.75405901  13- 5-15  107.75405901  14- 5-15  107.84796601

 NUCLEAR CHARGE:                   40
 NUMBER OF PRIMITIVE AOS:         405
 NUMBER OF SYMMETRY AOS:          370
 NUMBER OF CONTRACTIONS:          290   (  182A'  +  108A"  )
 NUMBER OF CORE ORBITALS:           5   (    5A'  +    0A"  )
 NUMBER OF VALENCE ORBITALS:       30   (   22A'  +    8A"  )


 NUCLEAR REPULSION ENERGY  175.08341455


 Eigenvalues of metric

         1 0.302E-03 0.367E-03 0.640E-03 0.968E-03 0.107E-02 0.119E-02 0.127E-02 0.131E-02
         2 0.131E-02 0.163E-02 0.175E-02 0.758E-02 0.852E-02 0.100E-01 0.123E-01 0.139E-01


 Contracted 2-electron integrals neglected if value below      1.0D-11
 AO integral compression algorithm  1   Integral accuracy      1.0D-11

     1485.832 MB (compressed) written to integral file ( 39.5%)

     Node minimum: 82.313 MB, node maximum: 108.528 MB


 NUMBER OF SORTED TWO-ELECTRON INTEGRALS:   28076521.     BUFFER LENGTH:  32768
 NUMBER OF SEGMENTS:   2  SEGMENT LENGTH:   15986443      RECORD LENGTH: 524288

 Memory used in sort:      16.54 MW

 SORT1 READ   469547294. AND WROTE    23197105. INTEGRALS IN     67 RECORDS. CPU TIME:     6.60 SEC, REAL TIME:     6.88 SEC
 SORT2 READ   371522720. AND WROTE   450053646. INTEGRALS IN   6000 RECORDS. CPU TIME:     0.66 SEC, REAL TIME:     0.92 SEC

 Node minimum:    28075114.  Node maximum:    28144797. integrals

 OPERATOR DM      FOR CENTER  0  COORDINATES:    0.000000    0.000000    0.000000


 **********************************************************************************************************************************
 DATASETS  * FILE   NREC   LENGTH (MB)   RECORD NAMES
              1      18       31.88       500      610      700      900      950      970     1001      129      960     1100   
                                          VAR    BASINP    GEOM    SYMINP    ZMAT    AOBASIS   BASIS     P2S    ABASIS      S 
                                         1400     1410     1200     1210     1080     1600     1650     1700   
                                           T        V       H0       H01     AOSYM     SMH    MOLCAS    OPER   

              2       5        3.39       700     1000      520     2100     1001   
                                         GEOM     BASIS   MCVARS     RHF     BASIS   

 PROGRAMS   *        TOTAL       INT   CCSD(T)    HF-SCF       INT
 CPU TIMES  *        16.69     10.16      4.59      0.18      1.56
 REAL TIME  *        19.12 SEC
 DISK USED  *       134.40 MB (local),        7.27 GB (total)
 SF USED    *        94.95 MB
 GA USED    *         0.00 MB       (max)       0.00 MB       (current)
 **********************************************************************************************************************************


 PROGRAM * RHF-SCF (CLOSED SHELL)       Authors: W. Meyer, H.-J. Werner


 NUMBER OF ELECTRONS:      20+   20-
 CONVERGENCE THRESHOLDS:    1.00E-05 (Density)    1.00E-07 (Energy)
 MAX. NUMBER OF ITERATIONS:       60
 INTERPOLATION TYPE:            DIIS
 INTERPOLATION STEPS:              2 (START)      1 (STEP)
 LEVEL SHIFTS:                  0.00 (CLOSED)  0.00 (OPEN) 



 Molecular orbitals read from record     2100.2  Type=RHF/CANONICAL (state 1.1)

 Present basis size:      182  108
 Previous basis size:      81   39
 Previous occupation:      16    4
 Previous closed-shells:   16    4
 Previous core-orbitals:    5    0
 Present occupation:       16    4
 Present closed-shells:    16    4
 Present core-orbitals:     5    0
 Wavefunction symmetry:    1   Singlet 

 Orbital overlap <old|new>:  < 1.1| 1.1> = 0.999999   < 2.1| 2.1> = 0.999999   < 3.1| 3.1> = 0.999999   < 4.1| 4.1> = 0.999999
                             < 5.1| 5.1> = 0.999999   < 6.1| 6.1> = 0.999935   < 7.1| 7.1> = 0.999952   < 8.1| 8.1> = 0.999946
                             < 9.1| 9.1> = 0.999956   <10.1|10.1> = 0.999932   <11.1|11.1> = 0.999934   <12.1|12.1> = 0.999905
                             <13.1|13.1> = 0.999934   <14.1|14.1> = 0.999920   <15.1|15.1> = 0.999891   <16.1|16.1> = 0.999879
                             < 1.2| 1.2> = 0.999936   < 2.2| 2.2> = 0.999924   < 3.2| 3.2> = 0.999916   < 4.2| 4.2> = 0.999774


 Molecular orbital dump at record        2101.2

 ITERATION    DDIFF          GRAD             ENERGY        2-EL.EN.            DIPOLE MOMENTS         DIIS   ORB.
    1      0.000D+00      0.000D+00      -195.19128672    476.714045   -0.20931   -0.06047    0.00000    0    start
    2      0.000D+00      0.400D-02      -195.21349405    477.004297   -0.20767   -0.06047    0.00000    1    diag
    3      0.939D-02      0.368D-03      -195.21379079    476.799409   -0.21762   -0.06229    0.00000    2    diag
    4      0.122D-02      0.524D-04      -195.21380047    476.887205   -0.21777   -0.06215    0.00000    3    diag
    5      0.106D-03      0.191D-04      -195.21380216    476.858143   -0.22015   -0.06265    0.00000    4    diag
    6      0.351D-04      0.574D-05      -195.21380233    476.859222   -0.22017   -0.06267    0.00000    5    diag
    7      0.969D-05      0.187D-05      -195.21380238    476.859511   -0.22083   -0.06280    0.00000    6    diag
    8      0.490D-05      0.784D-06      -195.21380238    476.859596   -0.22085   -0.06282    0.00000    0    orth

 Final occupancy:  16   4

 !RHF STATE  1.1 Energy              -195.213802378912
 Nuclear energy                       175.08341455
 One-electron energy                 -608.72701499
 Two-electron energy                  238.42979806
 Virial quotient                       -1.00171928
 !RHF STATE  1.1 Dipole moment         -0.22084545    -0.06281957     0.00000000
 Dipole moment /Debye                  -0.56129637    -0.15966097     0.00000000

 Orbital energies:

         1.1          2.1          3.1          4.1          5.1          6.1          7.1          8.1          9.1         10.1
    -11.236957   -11.226906   -11.219369   -11.213936   -11.206734    -1.094593    -0.996890    -0.926536    -0.857907    -0.708549

        11.1         12.1         13.1         14.1         15.1         16.1         17.1         18.1
     -0.631289    -0.591061    -0.546958    -0.514988    -0.488578    -0.464729     0.138981     0.162390

         1.2          2.2          3.2          4.2          5.2          6.2
     -0.614417    -0.558256    -0.489373    -0.345683     0.160275     0.213410


 HOMO      4.2    -0.345683 =      -9.4065eV
 LUMO     17.1     0.138981 =       3.7819eV
 LUMO-HOMO         0.484664 =      13.1884eV


 **********************************************************************************************************************************
 DATASETS  * FILE   NREC   LENGTH (MB)   RECORD NAMES
              1      18       31.90       500      610      700      900      950      970     1001      129      960     1100   
                                          VAR    BASINP    GEOM    SYMINP    ZMAT    AOBASIS   BASIS     P2S    ABASIS      S 
                                         1400     1410     1200     1210     1080     1600     1650     1700   
                                           T        V       H0       H01     AOSYM     SMH    MOLCAS    OPER   

              2       6        6.78       700     1000      520     2100     1001     2101   
                                         GEOM     BASIS   MCVARS     RHF     BASIS     RHF  

 PROGRAMS   *        TOTAL    HF-SCF       INT   CCSD(T)    HF-SCF       INT
 CPU TIMES  *        18.16      1.46     10.16      4.59      0.18      1.56
 REAL TIME  *        20.81 SEC
 DISK USED  *       134.40 MB (local),        7.27 GB (total)
 SF USED    *        94.95 MB
 GA USED    *         0.00 MB       (max)       0.00 MB       (current)
 **********************************************************************************************************************************


 PROGRAM * CCSD (Closed-shell coupled cluster)     Authors: C. Hampel, H.-J. Werner, 1991, M. Deegan, P.J. Knowles, 1992


 Convergence thresholds:  THRVAR = 1.00D-08  THRDEN = 1.00D-06

 CCSD(T)     terms to be evaluated (factor= 1.000)


 Number of core orbitals:           5 (   5   0 )
 Number of closed-shell orbitals:  15 (  11   4 )
 Number of external orbitals:     270 ( 166 104 )

 Molecular orbitals read from record     2101.2  Type=RHF/CANONICAL (state 1.1)

 Number of N-1 electron functions:              15
 Number of N-2 electron functions:             120
 Number of singly external CSFs:              2242
 Number of doubly external CSFs:           4149739
 Total number of CSFs:                     4151982

 Length of J-op  integral file:               0.00 MB
 Length of K-op  integral file:               3.10 MB
 Length of 3-ext integral record:             0.00 MB

 Memory could be reduced to 183.96 Mwords without degradation in triples

 Integral transformation finished. Total CPU:  10.35 sec, npass=  1  Memory used:  65.38 MW

 Reference energy:                   -195.21380238

 MP2 singlet pair energy:              -0.57500770
 MP2 triplet pair energy:              -0.28638449
 MP2 correlation energy:               -0.86139219
 MP2 total energy:                   -196.07519457

 SCS-MP2 correlation energy:           -0.86820404   (PS=  1.200000  PT=  0.333333)
 SCS-MP2 total energy:               -196.08200642

 ITER.      SQ.NORM     CORR.ENERGY   TOTAL ENERGY   ENERGY CHANGE        DEN1      VAR(S)    VAR(P)  DIIS     TIME  TIME/IT
   1      1.30077692    -0.91007233  -196.12387471    -0.04868013    -0.02612314  0.30D-02  0.46D-02  1  1    14.48     4.35
   2      1.32273383    -0.91406667  -196.12786905    -0.00399434    -0.02154696  0.54D-04  0.57D-03  2  2    19.10     4.69
   3      1.33017267    -0.91421430  -196.12801668    -0.00014763    -0.00419026  0.21D-04  0.44D-04  3  3    23.76     4.83
   4      1.33260258    -0.91428780  -196.12809018    -0.00007350    -0.00087511  0.18D-05  0.48D-05  4  4    28.42     4.91
   5      1.33319895    -0.91429681  -196.12809919    -0.00000900    -0.00014018  0.33D-06  0.53D-06  5  5    33.12     4.97
   6      1.33333987    -0.91429003  -196.12809241     0.00000678    -0.00002317  0.51D-07  0.38D-07  6  6    37.87     5.02
   7      1.33335867    -0.91428996  -196.12809234     0.00000007     0.00000070  0.87D-08  0.41D-08  6  2    42.64     5.06
   8      1.33336331    -0.91428997  -196.12809235    -0.00000001    -0.00000032  0.20D-08  0.50D-09  6  1    47.37     5.08

 Norm of t1 vector:      0.07412883      S-energy:     0.00000019      T1 diagnostic:  0.00956999
                                                                       D1 diagnostic:  0.03066230

 Doubles amplitudes (print threshold =  0.500E-01):

         I         J         SYM. A    SYM. B    A         B      T(IJ, AB)

        15        15         2         2         1         1     -0.07330434


 Total CPU time for triples:     91.67 sec


 RESULTS
 =======

  Reference energy                   -195.213802378912
  CCSD singlet pair energy             -0.648988627194
  CCSD triplet pair energy             -0.265301531475
  CCSD correlation energy              -0.914289967285

  Triples (T) contribution             -0.038276314988
  Total correlation energy             -0.952566282272

  CCSD total energy                  -196.128092346196
  CCSD[T] energy                     -196.167261076429
  CCSD-T energy                      -196.165982760650
 !CCSD(T) total energy               -196.166368661184

 Timing summary (sec):

 STEP                 CPU(USER)    SYS     CPU(TOT)    WALL
 Transformation         10.37      1.93     12.30     12.36
 CCSD iterations        37.05      3.54     40.59     40.76
 Triples                91.67      2.34     94.01     94.46

 Program statistics:

 Available memory in ccsd:              1249999068
 Min. memory needed in ccsd:              10377632
 Max. memory used in ccsd:                14193512
 Max. memory used in cckext:              14315156 ( 8 integral passes)



 **********************************************************************************************************************************
 DATASETS  * FILE   NREC   LENGTH (MB)   RECORD NAMES
              1      19      693.33       500      610      700      900      950      970     1001      129      960     1100   
                                          VAR    BASINP    GEOM    SYMINP    ZMAT    AOBASIS   BASIS     P2S    ABASIS      S 
                                         1400     1410     1200     1210     1080     1600     1650     1700     1380   
                                           T        V       H0       H01     AOSYM     SMH    MOLCAS    OPER     JKOP   

              2       6        6.78       700     1000      520     2100     1001     2101   
                                         GEOM     BASIS   MCVARS     RHF     BASIS     RHF  

 PROGRAMS   *        TOTAL   CCSD(T)    HF-SCF       INT   CCSD(T)    HF-SCF       INT
 CPU TIMES  *       157.28    139.12      1.46     10.16      4.59      0.18      1.56
 REAL TIME  *       168.60 SEC
 DISK USED  *         1.13 GB (local),       17.64 GB (total)
 SF USED    *         1.03 GB
 GA USED    *         0.00 MB       (max)       0.00 MB       (current)
 **********************************************************************************************************************************
 SETTING BASIS          =    VQZ


 Recomputing integrals since basis changed


 Using spherical harmonics

 Library entry C      S cc-pVQZ              selected for orbital group  1
 Library entry C      P cc-pVQZ              selected for orbital group  1
 Library entry C      D cc-pVQZ              selected for orbital group  1
 Library entry C      F cc-pVQZ              selected for orbital group  1
 Library entry C      G cc-pVQZ              selected for orbital group  1
 Library entry H      S cc-pVQZ              selected for orbital group  2
 Library entry H      P cc-pVQZ              selected for orbital group  2
 Library entry H      D cc-pVQZ              selected for orbital group  2
 Library entry H      F cc-pVQZ              selected for orbital group  2


 PROGRAM * SEWARD (Integral evaluation for generally contracted gaussian basis sets)     Author: Roland Lindh, 1990

 Geometry written to block  1 of record 700


 Point group  Cs  



 ATOMIC COORDINATES

 NR  ATOM    CHARGE       X              Y              Z

   1  C       6.00    2.479723187    1.526970518    0.000000000
   2  C       6.00    0.000000000    1.046794889    0.000000000
   3  C       6.00   -1.927335454    3.150746037    0.000000000
   4  C       6.00   -1.108921526   -1.593182742    0.000000000
   5  C       6.00    0.769674112   -3.789904324    0.000000000
   6  H       1.00    3.888495116    0.038019400    0.000000000
   7  H       1.00    3.187848919    3.453742834    0.000000000
   8  H       1.00   -1.032158961    5.012305793    0.000000000
   9  H       1.00   -3.163839949    3.029916948   -1.661454768
  10  H       1.00   -3.163839949    3.029916948    1.661454768
  11  H       1.00   -2.369058936   -1.764329568    1.645259815
  12  H       1.00   -2.369058936   -1.764329568   -1.645259815
  13  H       1.00   -0.230947209   -5.599504171    0.000000000
  14  H       1.00    1.986858047   -3.742150945   -1.671929520
  15  H       1.00    1.986858047   -3.742150945    1.671929520

 Bond lengths in Bohr (Angstrom)

 1-2  2.525786159  1-6  2.049783837  1-7  2.052777048  2-3  2.853284490  2-4  2.863422575
     ( 1.336588475)     ( 1.084698894)     ( 1.086282833)     ( 1.509893128)     ( 1.515257972)

  3- 8  2.065610244   3- 9  2.074602367   3-10  2.074602367   4- 5  2.890451051   4-11  2.079451222
       ( 1.093073868)       ( 1.097832294)       ( 1.097832294)       ( 1.529560826)       ( 1.100398198)

  4-12  2.079451222   5-13  2.067823647   5-14  2.068614376   5-15  2.068614376
       ( 1.100398198)       ( 1.094245150)       ( 1.094663586)       ( 1.094663586)

 Bond angles

  1-2-3  121.53223736   1-2-4  123.74398829   2-1-6  122.45587886   2-1-7  121.13851424

  2- 3- 8  111.82688386   2- 3- 9  111.07888112   2- 3-10  111.07888112   2- 4- 5  116.67872978

  2- 4-11  108.09333733   2- 4-12  108.09333733   3- 2- 4  114.72377435   4- 5-13  110.52307610

  4- 5-14  111.40014253   4- 5-15  111.40014253   5- 4-11  109.34801085   5- 4-12  109.34801085

  6- 1- 7  116.40560690   8- 3- 9  108.10664560   8- 3-10  108.10664560   9- 3-10  106.42356916

 11- 4-12  104.59541083  13- 5-14  107.75405901  13- 5-15  107.75405901  14- 5-15  107.84796601

 NUCLEAR CHARGE:                   40
 NUMBER OF PRIMITIVE AOS:         785
 NUMBER OF SYMMETRY AOS:          660
 NUMBER OF CONTRACTIONS:          575   (  345A'  +  230A"  )
 NUMBER OF CORE ORBITALS:           5   (    5A'  +    0A"  )
 NUMBER OF VALENCE ORBITALS:       30   (   22A'  +    8A"  )


 NUCLEAR REPULSION ENERGY  175.08341455


 Eigenvalues of metric

         1 0.524E-04 0.598E-04 0.834E-04 0.960E-04 0.106E-03 0.121E-03 0.160E-03 0.175E-03
         2 0.188E-03 0.236E-03 0.263E-03 0.128E-02 0.142E-02 0.150E-02 0.188E-02 0.220E-02


 Contracted 2-electron integrals neglected if value below      1.0D-11
 AO integral compression algorithm  1   Integral accuracy      1.0D-11

     17743.217 MB (compressed) written to integral file ( 31.8%)

     Node minimum: 897.319 MB, node maximum: 1254.097 MB


 NUMBER OF SORTED TWO-ELECTRON INTEGRALS:  430622420.     BUFFER LENGTH:  32768
 NUMBER OF SEGMENTS:  14  SEGMENT LENGTH:   31999072      RECORD LENGTH: 524288

 Memory used in sort:      32.56 MW

 SORT1 READ  6979208629. AND WROTE   295348528. INTEGRALS IN    852 RECORDS. CPU TIME:   129.71 SEC, REAL TIME:   139.08 SEC
 SORT2 READ  4726219032. AND WROTE  6890638425. INTEGRALS IN  70656 RECORDS. CPU TIME:     7.33 SEC, REAL TIME:    92.61 SEC

 Node minimum:   430568520.  Node maximum:   430828435. integrals

 OPERATOR DM      FOR CENTER  0  COORDINATES:    0.000000    0.000000    0.000000


 **********************************************************************************************************************************
 DATASETS  * FILE   NREC   LENGTH (MB)   RECORD NAMES
              1      18       36.53       500      610      700      900      950      970     1002      129      960     1100   
                                          VAR    BASINP    GEOM    SYMINP    ZMAT    AOBASIS   BASIS     P2S    ABASIS      S 
                                         1400     1410     1200     1210     1080     1600     1650     1700   
                                           T        V       H0       H01     AOSYM     SMH    MOLCAS    OPER   

              2       7        7.79       700     1000      520     2100     1001     2101     1002   
                                         GEOM     BASIS   MCVARS     RHF     BASIS     RHF     BASIS   

 PROGRAMS   *        TOTAL       INT   CCSD(T)    HF-SCF       INT   CCSD(T)    HF-SCF       INT
 CPU TIMES  *       314.93    157.65    139.12      1.46     10.16      4.59      0.18      1.56
 REAL TIME  *       422.35 SEC
 DISK USED  *         1.13 GB (local),       86.84 GB (total)
 SF USED    *         1.03 GB
 GA USED    *         0.00 MB       (max)       0.00 MB       (current)
 **********************************************************************************************************************************


 PROGRAM * RHF-SCF (CLOSED SHELL)       Authors: W. Meyer, H.-J. Werner


 NUMBER OF ELECTRONS:      20+   20-
 CONVERGENCE THRESHOLDS:    1.00E-05 (Density)    1.00E-07 (Energy)
 MAX. NUMBER OF ITERATIONS:       60
 INTERPOLATION TYPE:            DIIS
 INTERPOLATION STEPS:              2 (START)      1 (STEP)
 LEVEL SHIFTS:                  0.00 (CLOSED)  0.00 (OPEN) 



 Molecular orbitals read from record     2101.2  Type=RHF/CANONICAL (state 1.1)

 Present basis size:      345  230
 Previous basis size:     182  108
 Previous occupation:      16    4
 Previous closed-shells:   16    4
 Previous core-orbitals:    5    0
 Present occupation:       16    4
 Present closed-shells:    16    4
 Present core-orbitals:     5    0
 Wavefunction symmetry:    1   Singlet 

 Orbital overlap <old|new>:  < 1.1| 1.1> = 0.999999   < 2.1| 2.1> = 0.999999   < 3.1| 3.1> = 0.999999   < 4.1| 4.1> = 0.999999
                             < 5.1| 5.1> = 0.999999   < 6.1| 6.1> = 0.999995   < 7.1| 7.1> = 0.999996   < 8.1| 8.1> = 0.999995
                             < 9.1| 9.1> = 0.999995   <10.1|10.1> = 0.999991   <11.1|11.1> = 0.999990   <12.1|12.1> = 0.999986
                             <13.1|13.1> = 0.999989   <14.1|14.1> = 0.999988   <15.1|15.1> = 0.999984   <16.1|16.1> = 0.999983
                             < 1.2| 1.2> = 0.999989   < 2.2| 2.2> = 0.999987   < 3.2| 3.2> = 0.999987   < 4.2| 4.2> = 0.999957


 Molecular orbital dump at record        2102.2

 ITERATION    DDIFF          GRAD             ENERGY        2-EL.EN.            DIPOLE MOMENTS         DIIS   ORB.
    1      0.000D+00      0.000D+00      -195.22393253    476.857946   -0.22041   -0.06357    0.00000    0    start
    2      0.000D+00      0.123D-02      -195.22625425    476.898470   -0.22148   -0.06522    0.00000    1    diag
    3      0.281D-02      0.678D-04      -195.22627292    476.865908   -0.22406   -0.06625    0.00000    2    diag
    4      0.322D-03      0.807D-05      -195.22627366    476.881744   -0.22423   -0.06638    0.00000    3    diag
    5      0.373D-04      0.323D-05      -195.22627376    476.874849   -0.22482   -0.06653    0.00000    4    diag
    6      0.577D-05      0.112D-05      -195.22627378    476.875514   -0.22484   -0.06655    0.00000    5    diag
    7      0.228D-05      0.335D-06      -195.22627378    476.875670   -0.22496   -0.06657    0.00000    0    orth

 Final occupancy:  16   4

 !RHF STATE  1.1 Energy              -195.226273784423
 Nuclear energy                       175.08341455
 One-electron energy                 -608.74752324
 Two-electron energy                  238.43783490
 Virial quotient                       -1.00147179
 !RHF STATE  1.1 Dipole moment         -0.22496173    -0.06656897     0.00000000
 Dipole moment /Debye                  -0.57175822    -0.16919036     0.00000000

 Orbital energies:

         1.1          2.1          3.1          4.1          5.1          6.1          7.1          8.1          9.1         10.1
    -11.236530   -11.226124   -11.218672   -11.213101   -11.206551    -1.094751    -0.996936    -0.926809    -0.858026    -0.708918

        11.1         12.1         13.1         14.1         15.1         16.1         17.1         18.1
     -0.631774    -0.591504    -0.547360    -0.515421    -0.488991    -0.465188     0.110360     0.132375

         1.2          2.2          3.2          4.2          5.2          6.2
     -0.614766    -0.558603    -0.489751    -0.346150     0.145009     0.189841


 HOMO      4.2    -0.346150 =      -9.4192eV
 LUMO     17.1     0.110360 =       3.0030eV
 LUMO-HOMO         0.456509 =      12.4222eV


 **********************************************************************************************************************************
 DATASETS  * FILE   NREC   LENGTH (MB)   RECORD NAMES
              1      18       36.59       500      610      700      900      950      970     1002      129      960     1100   
                                          VAR    BASINP    GEOM    SYMINP    ZMAT    AOBASIS   BASIS     P2S    ABASIS      S 
                                         1400     1410     1200     1210     1080     1600     1650     1700   
                                           T        V       H0       H01     AOSYM     SMH    MOLCAS    OPER   

              2       8       13.73       700     1000      520     2100     1001     2101     1002     2102   
                                         GEOM     BASIS   MCVARS     RHF     BASIS     RHF     BASIS     RHF  

 PROGRAMS   *        TOTAL    HF-SCF       INT   CCSD(T)    HF-SCF       INT   CCSD(T)    HF-SCF       INT
 CPU TIMES  *       334.86     19.93    157.65    139.12      1.46     10.16      4.59      0.18      1.56
 REAL TIME  *       445.03 SEC
 DISK USED  *         1.13 GB (local),       86.84 GB (total)
 SF USED    *         1.03 GB
 GA USED    *         0.00 MB       (max)       0.00 MB       (current)
 **********************************************************************************************************************************
 Molecular orbitals read from record     2102.2  Type=RHF/CANONICAL (state 1.1)
 Occupation numbers read from record     2102.2  Type=RHF/RHF (state 1.1)
 Orbital energies read from record       2102.2  Type=RHF/CANONICAL (state 1.1)
 Redundancy group numbers read from rec  2102.2  Type=RHF/RHF (state 1.1)

 HF/cc-pVQZ energy=   -195.226273784423

          HF-SCF         CCSD(T)          HF-SCF         CCSD(T)          HF-SCF
   -195.22627378   -196.16636866   -195.21380238   -195.95805700   -195.15964209
 **********************************************************************************************************************************
 Molpro calculation terminated
