
 Primary working directories    : /home/tmp/molpro/molpro.TRWjfdfgcW
 Secondary working directories  : /home/tmp/molpro/molpro.TRWjfdfgcW
 Wavefunction directory         : /root/wfu/
 Main file repository           : /home/tmp/molpro/molpro.TRWjfdfgcW/

 id        : scuxyl

 Nodes                nprocs
 localhost.localdomain   16

 Using customized tuning parameters: mindgm=1; mindgv=20; mindgc=4; mindgr=1; noblas=0; minvec=7
 default implementation of scratch files=sf  


 Variables initialized (934), CPU time= 0.01 sec
 ***,CCC
 memory,450,m
 geometry={
 C        0.000000       -1.276933       -0.259564
 C       -0.000000       -0.000000        0.585796
 C        0.000000        1.276933       -0.259564
 H        0.000000       -2.174981        0.367096
 H        0.883697       -1.322939       -0.906877
 H       -0.883697       -1.322939       -0.906877
 H        0.876553       -0.000000        1.246652
 H       -0.876553        0.000000        1.246652
 H        0.883697        1.322939       -0.906877
 H        0.000000        2.174981        0.367096
 H       -0.883697        1.322939       -0.906877
 }
 
 basis=vdz
 {hf;wf,26,spin,0,charge,0,state,1,maxit,100}
 {ccsd(t);maxit,100}
 
 basis=vtz
 hf
 ccsd(t)
 
 basis=vqz
 hf
 Commands  initialized (763), CPU time= 0.01 sec, 617 directives.
 Default parameters read. Elapsed time= 0.06 sec

 Checking input...
 Passed
1


                                         ***  PROGRAM SYSTEM MOLPRO  ***
                                       Copyright, TTI GmbH Stuttgart, 2015
                                    Version 2019.2 linked Jun  8 2019 11:26:33


 **********************************************************************************************************************************
 LABEL *   CCC                                                                           
  64 bit mpp version                                                                     DATE: 05-May-22          TIME: 09:44:07  
 **********************************************************************************************************************************

 SHA1:             8135a10abc80eafa5b3ae28ffc55be4890dc4c84
 **********************************************************************************************************************************

Geometry recognized as XYZ


 Variable memory set to  450000000 words,  buffer space 

 SETTING BASIS          =    VDZ


 Recomputing integrals since basis changed


 Using spherical harmonics

 Library entry C      S cc-pVDZ              selected for orbital group  1
 Library entry C      P cc-pVDZ              selected for orbital group  1
 Library entry C      D cc-pVDZ              selected for orbital group  1
 Library entry H      S cc-pVDZ              selected for orbital group  2
 Library entry H      P cc-pVDZ              selected for orbital group  2


 PROGRAM * SEWARD (Integral evaluation for generally contracted gaussian basis sets)     Author: Roland Lindh, 1990

 Geometry written to block  1 of record 700


 Point group  C2v 



 ATOMIC COORDINATES

 NR  ATOM    CHARGE       X              Y              Z

   1  C       6.00    0.000000000   -2.413053649   -0.490504872
   2  C       6.00    0.000000000    2.413053649   -0.490504872
   3  C       6.00    0.000000000    0.000000000    1.106994005
   4  H       1.00    0.000000000   -4.110118416    0.693710901
   5  H       1.00    0.000000000    4.110118416    0.693710901
   6  H       1.00    1.669945307   -2.499992390   -1.713749159
   7  H       1.00   -1.669945307   -2.499992390   -1.713749159
   8  H       1.00    1.669945307    2.499992390   -1.713749159
   9  H       1.00   -1.669945307    2.499992390   -1.713749159
  10  H       1.00    1.656445104    0.000000000    2.355830853
  11  H       1.00   -1.656445104    0.000000000    2.355830853

 Bond lengths in Bohr (Angstrom)

 1-3  2.893929954  1-4  2.069395037  1-6  2.071859614  1-7  2.071859614  2-3  2.893929954
     ( 1.531401781)     ( 1.095076694)     ( 1.096380892)     ( 1.096380892)     ( 1.531401781)

  2- 5  2.069395037   2- 8  2.071859614   2- 9  2.071859614   3-10  2.074464715   3-11  2.074464715
       ( 1.095076694)       ( 1.096380892)       ( 1.096380892)       ( 1.097759452)       ( 1.097759452)

 Bond angles

  1- 3- 2  112.98898772   1- 3-10  109.40945171   1- 3-11  109.40945171   2- 3-10  109.40945171

  2- 3-11  109.40945171   3- 1- 4  111.58706858   3- 1- 6  111.15577563   3- 1- 7  111.15577563

  3-2-5  111.58706858   3-2-8  111.15577563   3-2-9  111.15577563   4-1-6  107.66499039

  4-1-7  107.66499039   5-2-8  107.66499039   5-2-9  107.66499039   6-1-7  107.41635533

  8- 2- 9  107.41635533  10- 3-11  105.97282764

 NUCLEAR CHARGE:                   26
 NUMBER OF PRIMITIVE AOS:         137
 NUMBER OF SYMMETRY AOS:          134
 NUMBER OF CONTRACTIONS:           82   (   30A1  +   17B1  +   23B2  +   12A2  )
 NUMBER OF CORE ORBITALS:           3   (    2A1  +    0B1  +    1B2  +    0A2  )
 NUMBER OF VALENCE ORBITALS:       20   (    8A1  +    4B1  +    6B2  +    2A2  )


 NUCLEAR REPULSION ENERGY   82.29766801

 Eigenvalues of metric

         1 0.385E-02 0.152E-01 0.339E-01 0.369E-01 0.431E-01 0.509E-01 0.578E-01 0.946E-01
         2 0.237E-01 0.361E-01 0.391E-01 0.586E-01 0.115E+00 0.154E+00 0.292E+00 0.427E+00
         3 0.662E-02 0.238E-01 0.306E-01 0.368E-01 0.508E-01 0.820E-01 0.125E+00 0.131E+00
         4 0.341E-01 0.457E-01 0.119E+00 0.266E+00 0.358E+00 0.663E+00 0.912E+00 0.109E+01


 Contracted 2-electron integrals neglected if value below      1.0D-11
 AO integral compression algorithm  1   Integral accuracy      1.0D-11

     11.272 MB (compressed) written to integral file ( 68.3%)

     Node minimum: 0.524 MB, node maximum: 0.786 MB


 NUMBER OF SORTED TWO-ELECTRON INTEGRALS:      92629.     BUFFER LENGTH:  32768
 NUMBER OF SEGMENTS:   1  SEGMENT LENGTH:      92629      RECORD LENGTH: 524288

 Memory used in sort:       0.65 MW

 SORT1 READ     1929373. AND WROTE       91934. INTEGRALS IN      1 RECORDS. CPU TIME:     0.04 SEC, REAL TIME:     0.05 SEC
 SORT2 READ     1502916. AND WROTE     1518048. INTEGRALS IN     48 RECORDS. CPU TIME:     0.00 SEC, REAL TIME:     0.01 SEC

 Node minimum:       91040.  Node maximum:       98623. integrals

 OPERATOR DM      FOR CENTER  0  COORDINATES:    0.000000    0.000000    0.000000


 **********************************************************************************************************************************
 DATASETS  * FILE   NREC   LENGTH (MB)   RECORD NAMES
              1      18       30.21       500      610      700      900      950      970     1000      129      960     1100   
                                          VAR    BASINP    GEOM    SYMINP    ZMAT    AOBASIS   BASIS     P2S    ABASIS      S 
                                         1400     1410     1200     1210     1080     1600     1650     1700   
                                           T        V       H0       H01     AOSYM     SMH    MOLCAS    OPER   

 PROGRAMS   *        TOTAL       INT
 CPU TIMES  *         0.78      0.62
 REAL TIME  *         1.35 SEC
 DISK USED  *        30.67 MB (local),      566.36 MB (total)
 GA USED    *         0.00 MB       (max)       0.00 MB       (current)
 **********************************************************************************************************************************


 PROGRAM * RHF-SCF (CLOSED SHELL)       Authors: W. Meyer, H.-J. Werner


 NUMBER OF ELECTRONS:      13+   13-
 CONVERGENCE THRESHOLDS:    1.00E-05 (Density)    1.00E-07 (Energy)
 MAX. NUMBER OF ITERATIONS:       60
 INTERPOLATION TYPE:            DIIS
 INTERPOLATION STEPS:              2 (START)      1 (STEP)
 LEVEL SHIFTS:                  0.00 (CLOSED)  0.00 (OPEN) 



 Orbital guess generated from atomic densities. Full valence occupancy:   10   4   7   2

 Molecular orbital dump at record        2100.2

 Initial occupancy:   6   2   4   1

 ITERATION    DDIFF          GRAD             ENERGY        2-EL.EN.            DIPOLE MOMENTS         DIIS   ORB.
    1      0.000D+00      0.000D+00      -118.22894699    242.634857    0.00000    0.00000    0.00556    0    start
    2      0.000D+00      0.998D-02      -118.26715691    239.624007    0.00000    0.00000    0.01434    1    diag
    3      0.208D-01      0.381D-02      -118.27173756    240.909533    0.00000    0.00000    0.03140    2    diag
    4      0.757D-02      0.120D-02      -118.27242793    240.585678    0.00000    0.00000    0.02647    3    diag
    5      0.258D-02      0.144D-03      -118.27243764    240.594630    0.00000    0.00000    0.02565    4    diag
    6      0.393D-03      0.444D-04      -118.27243838    240.592761    0.00000    0.00000    0.02580    5    diag
    7      0.112D-03      0.604D-05      -118.27243840    240.592661    0.00000    0.00000    0.02550    6    diag
    8      0.190D-04      0.116D-05      -118.27243840    240.592600    0.00000    0.00000    0.02550    7    diag
    9      0.325D-05      0.264D-06      -118.27243840    240.592606    0.00000    0.00000    0.02549    0    orth

 Final occupancy:   6   2   4   1

 !RHF STATE  1.1 Energy              -118.272438403351
 Nuclear energy                        82.29766801
 One-electron energy                 -320.86640940
 Two-electron energy                  120.29630298
 Virial quotient                       -1.00182118
 !RHF STATE  1.1 Dipole moment          0.00000000     0.00000000     0.02549155
 Dipole moment /Debye                   0.00000000     0.00000000     0.06478882

 Orbital energies:

         1.1          2.1          3.1          4.1          5.1          6.1          7.1          8.1
    -11.223764   -11.217864    -1.050540    -0.798788    -0.594448    -0.473351     0.182572     0.233422

         1.2          2.2          3.2          4.2
     -0.620172    -0.465582     0.235358     0.283245

         1.3          2.3          3.3          4.3          5.3          6.3
    -11.217908    -0.924141    -0.547837    -0.474135     0.229321     0.291961

         1.4          2.4          3.4
     -0.528373     0.304072     0.615054


 HOMO      2.2    -0.465582 =     -12.6691eV
 LUMO      7.1     0.182572 =       4.9680eV
 LUMO-HOMO         0.648153 =      17.6372eV


 **********************************************************************************************************************************
 DATASETS  * FILE   NREC   LENGTH (MB)   RECORD NAMES
              1      18       30.21       500      610      700      900      950      970     1000      129      960     1100   
                                          VAR    BASINP    GEOM    SYMINP    ZMAT    AOBASIS   BASIS     P2S    ABASIS      S 
                                         1400     1410     1200     1210     1080     1600     1650     1700   
                                           T        V       H0       H01     AOSYM     SMH    MOLCAS    OPER   

              2       4        2.96       700     1000      520     2100   
                                         GEOM     BASIS   MCVARS     RHF  

 PROGRAMS   *        TOTAL    HF-SCF       INT
 CPU TIMES  *         0.95      0.17      0.62
 REAL TIME  *         1.56 SEC
 DISK USED  *        33.35 MB (local),      609.31 MB (total)
 SF USED    *         0.01 MB
 GA USED    *         0.00 MB       (max)       0.00 MB       (current)
 **********************************************************************************************************************************


 PROGRAM * CCSD (Closed-shell coupled cluster)     Authors: C. Hampel, H.-J. Werner, 1991, M. Deegan, P.J. Knowles, 1992


 Convergence thresholds:  THRVAR = 1.00D-08  THRDEN = 1.00D-06

 CCSD(T)     terms to be evaluated (factor= 1.000)


 Number of core orbitals:           3 (   2   0   1   0 )
 Number of closed-shell orbitals:  10 (   4   2   3   1 )
 Number of external orbitals:      69 (  24  15  19  11 )

 Molecular orbitals read from record     2100.2  Type=RHF/CANONICAL (state 1.1)

 Number of N-1 electron functions:              10
 Number of N-2 electron functions:              55
 Number of singly external CSFs:               194
 Number of doubly external CSFs:             60476
 Total number of CSFs:                       60671

 Length of J-op  integral file:               0.00 MB
 Length of K-op  integral file:               0.13 MB
 Length of 3-ext integral record:             0.00 MB

 Memory could be reduced to 1.25 Mwords without degradation in triples

 Integral transformation finished. Total CPU:   0.03 sec, npass=  1  Memory used:   0.34 MW

 Reference energy:                   -118.27243840

 MP2 singlet pair energy:              -0.30129276
 MP2 triplet pair energy:              -0.14411071
 MP2 correlation energy:               -0.44540347
 MP2 total energy:                   -118.71784187

 SCS-MP2 correlation energy:           -0.45122020   (PS=  1.200000  PT=  0.333333)
 SCS-MP2 total energy:               -118.72365860

 ITER.      SQ.NORM     CORR.ENERGY   TOTAL ENERGY   ENERGY CHANGE        DEN1      VAR(S)    VAR(P)  DIIS     TIME  TIME/IT
   1      1.17734895    -0.49188610  -118.76432450    -0.04648263    -0.03328048  0.85D-03  0.29D-02  1  1     0.05     0.02
   2      1.19230332    -0.49517691  -118.76761532    -0.00329082    -0.01499509  0.24D-04  0.16D-03  2  2     0.07     0.02
   3      1.19468230    -0.49532798  -118.76776638    -0.00015106    -0.00138597  0.23D-05  0.11D-04  3  3     0.08     0.02
   4      1.19527603    -0.49536235  -118.76780076    -0.00003438    -0.00026398  0.11D-06  0.63D-06  4  4     0.10     0.02
   5      1.19534668    -0.49536370  -118.76780210    -0.00000134    -0.00003028  0.84D-08  0.48D-07  5  5     0.12     0.02
   6      1.19535270    -0.49536248  -118.76780089     0.00000122    -0.00000434  0.39D-09  0.33D-08  6  6     0.14     0.02
   7      1.19535193    -0.49536273  -118.76780113    -0.00000025     0.00000050  0.88D-10  0.24D-09  6  1     0.16     0.02
   8      1.19535181    -0.49536278  -118.76780119    -0.00000005     0.00000013  0.45D-11  0.16D-10  6  2     0.18     0.02

 Norm of t1 vector:      0.03890300      S-energy:    -0.00000002      T1 diagnostic:  0.00615110
                                                                       D1 diagnostic:  0.01111792


 Total CPU time for triples:      0.03 sec


 RESULTS
 =======

  Reference energy                   -118.272438403351
  CCSD singlet pair energy             -0.359329798995
  CCSD triplet pair energy             -0.136032967383
  CCSD correlation energy              -0.495362782373

  Triples (T) contribution             -0.013208708278
  Total correlation energy             -0.508571490651

  CCSD total energy                  -118.767801185724
  CCSD[T] energy                     -118.781258211400
  CCSD-T energy                      -118.780875339080
 !CCSD(T) total energy               -118.781009894002

 Timing summary (sec):

 STEP                 CPU(USER)    SYS     CPU(TOT)    WALL
 Transformation          0.03      0.04      0.07      0.07
 CCSD iterations         0.15      0.06      0.21      0.20
 Triples                 0.03      0.00      0.03      0.04

 Program statistics:

 Available memory in ccsd:               449999594
 Min. memory needed in ccsd:                186290
 Max. memory used in ccsd:                  236183
 Max. memory used in cckext:                260458 ( 8 integral passes)



 **********************************************************************************************************************************
 DATASETS  * FILE   NREC   LENGTH (MB)   RECORD NAMES
              1      19       34.78       500      610      700      900      950      970     1000      129      960     1100   
                                          VAR    BASINP    GEOM    SYMINP    ZMAT    AOBASIS   BASIS     P2S    ABASIS      S 
                                         1400     1410     1200     1210     1080     1600     1650     1700     1380   
                                           T        V       H0       H01     AOSYM     SMH    MOLCAS    OPER     JKOP   

              2       4        2.96       700     1000      520     2100   
                                         GEOM     BASIS   MCVARS     RHF  

 PROGRAMS   *        TOTAL   CCSD(T)    HF-SCF       INT
 CPU TIMES  *         1.20      0.25      0.17      0.62
 REAL TIME  *         1.91 SEC
 DISK USED  *        44.30 MB (local),      686.97 MB (total)
 SF USED    *        10.37 MB
 GA USED    *         0.00 MB       (max)       0.00 MB       (current)
 **********************************************************************************************************************************
 SETTING BASIS          =    VTZ


 Recomputing integrals since basis changed


 Using spherical harmonics

 Library entry C      S cc-pVTZ              selected for orbital group  1
 Library entry C      P cc-pVTZ              selected for orbital group  1
 Library entry C      D cc-pVTZ              selected for orbital group  1
 Library entry C      F cc-pVTZ              selected for orbital group  1
 Library entry H      S cc-pVTZ              selected for orbital group  2
 Library entry H      P cc-pVTZ              selected for orbital group  2
 Library entry H      D cc-pVTZ              selected for orbital group  2


 PROGRAM * SEWARD (Integral evaluation for generally contracted gaussian basis sets)     Author: Roland Lindh, 1990

 Geometry written to block  1 of record 700


 Point group  C2v 



 ATOMIC COORDINATES

 NR  ATOM    CHARGE       X              Y              Z

   1  C       6.00    0.000000000   -2.413053649   -0.490504872
   2  C       6.00    0.000000000    2.413053649   -0.490504872
   3  C       6.00    0.000000000    0.000000000    1.106994005
   4  H       1.00    0.000000000   -4.110118416    0.693710901
   5  H       1.00    0.000000000    4.110118416    0.693710901
   6  H       1.00    1.669945307   -2.499992390   -1.713749159
   7  H       1.00   -1.669945307   -2.499992390   -1.713749159
   8  H       1.00    1.669945307    2.499992390   -1.713749159
   9  H       1.00   -1.669945307    2.499992390   -1.713749159
  10  H       1.00    1.656445104    0.000000000    2.355830853
  11  H       1.00   -1.656445104    0.000000000    2.355830853

 Bond lengths in Bohr (Angstrom)

 1-3  2.893929954  1-4  2.069395037  1-6  2.071859614  1-7  2.071859614  2-3  2.893929954
     ( 1.531401781)     ( 1.095076694)     ( 1.096380892)     ( 1.096380892)     ( 1.531401781)

  2- 5  2.069395037   2- 8  2.071859614   2- 9  2.071859614   3-10  2.074464715   3-11  2.074464715
       ( 1.095076694)       ( 1.096380892)       ( 1.096380892)       ( 1.097759452)       ( 1.097759452)

 Bond angles

  1- 3- 2  112.98898772   1- 3-10  109.40945171   1- 3-11  109.40945171   2- 3-10  109.40945171

  2- 3-11  109.40945171   3- 1- 4  111.58706858   3- 1- 6  111.15577563   3- 1- 7  111.15577563

  3-2-5  111.58706858   3-2-8  111.15577563   3-2-9  111.15577563   4-1-6  107.66499039

  4-1-7  107.66499039   5-2-8  107.66499039   5-2-9  107.66499039   6-1-7  107.41635533

  8- 2- 9  107.41635533  10- 3-11  105.97282764

 NUCLEAR CHARGE:                   26
 NUMBER OF PRIMITIVE AOS:         277
 NUMBER OF SYMMETRY AOS:          254
 NUMBER OF CONTRACTIONS:          202   (   67A1  +   45B1  +   55B2  +   35A2  )
 NUMBER OF CORE ORBITALS:           3   (    2A1  +    0B1  +    1B2  +    0A2  )
 NUMBER OF VALENCE ORBITALS:       20   (    8A1  +    4B1  +    6B2  +    2A2  )


 NUCLEAR REPULSION ENERGY   82.29766801

 Eigenvalues of metric

         1 0.101E-02 0.115E-02 0.145E-02 0.167E-02 0.312E-02 0.440E-02 0.922E-02 0.108E-01
         2 0.131E-02 0.167E-02 0.819E-02 0.849E-02 0.132E-01 0.189E-01 0.267E-01 0.373E-01
         3 0.113E-02 0.149E-02 0.179E-02 0.306E-02 0.748E-02 0.967E-02 0.133E-01 0.176E-01
         4 0.166E-02 0.100E-01 0.141E-01 0.184E-01 0.305E-01 0.493E-01 0.777E-01 0.105E+00


 Contracted 2-electron integrals neglected if value below      1.0D-11
 AO integral compression algorithm  1   Integral accuracy      1.0D-11

     276.300 MB (compressed) written to integral file ( 52.7%)

     Node minimum: 14.418 MB, node maximum: 19.661 MB


 NUMBER OF SORTED TWO-ELECTRON INTEGRALS:    3336470.     BUFFER LENGTH:  32768
 NUMBER OF SEGMENTS:   1  SEGMENT LENGTH:    3336470      RECORD LENGTH: 524288

 Memory used in sort:       3.89 MW

 SORT1 READ    65527452. AND WROTE     3307646. INTEGRALS IN     10 RECORDS. CPU TIME:     1.26 SEC, REAL TIME:     1.38 SEC
 SORT2 READ    53020871. AND WROTE    53480291. INTEGRALS IN    976 RECORDS. CPU TIME:     0.12 SEC, REAL TIME:     0.18 SEC

 Node minimum:     3326061.  Node maximum:     3369182. integrals

 OPERATOR DM      FOR CENTER  0  COORDINATES:    0.000000    0.000000    0.000000


 **********************************************************************************************************************************
 DATASETS  * FILE   NREC   LENGTH (MB)   RECORD NAMES
              1      18       30.58       500      610      700      900      950      970     1001      129      960     1100   
                                          VAR    BASINP    GEOM    SYMINP    ZMAT    AOBASIS   BASIS     P2S    ABASIS      S 
                                         1400     1410     1200     1210     1080     1600     1650     1700   
                                           T        V       H0       H01     AOSYM     SMH    MOLCAS    OPER   

              2       5        3.05       700     1000      520     2100     1001   
                                         GEOM     BASIS   MCVARS     RHF     BASIS   

 PROGRAMS   *        TOTAL       INT   CCSD(T)    HF-SCF       INT
 CPU TIMES  *         3.66      2.46      0.25      0.17      0.62
 REAL TIME  *         4.68 SEC
 DISK USED  *        44.30 MB (local),        1.53 GB (total)
 SF USED    *        10.37 MB
 GA USED    *         0.00 MB       (max)       0.00 MB       (current)
 **********************************************************************************************************************************


 PROGRAM * RHF-SCF (CLOSED SHELL)       Authors: W. Meyer, H.-J. Werner


 NUMBER OF ELECTRONS:      13+   13-
 CONVERGENCE THRESHOLDS:    1.00E-05 (Density)    1.00E-07 (Energy)
 MAX. NUMBER OF ITERATIONS:       60
 INTERPOLATION TYPE:            DIIS
 INTERPOLATION STEPS:              2 (START)      1 (STEP)
 LEVEL SHIFTS:                  0.00 (CLOSED)  0.00 (OPEN) 



 Molecular orbitals read from record     2100.2  Type=RHF/CANONICAL (state 1.1)

 Present basis size:       67   45   55   35
 Previous basis size:      30   17   23   12
 Previous occupation:       6    2    4    1
 Previous closed-shells:    6    2    4    1
 Previous core-orbitals:    2    0    1    0
 Present occupation:        6    2    4    1
 Present closed-shells:     6    2    4    1
 Present core-orbitals:     2    0    1    0
 Wavefunction symmetry:    1   Singlet 

 Orbital overlap <old|new>:  < 1.1| 1.1> = 0.999999   < 2.1| 2.1> = 0.999999   < 1.3| 1.3> = 0.999999   < 3.1| 3.1> = 0.999958
                             < 4.1| 4.1> = 0.999954   < 5.1| 5.1> = 0.999929   < 6.1| 6.1> = 0.999890   < 1.2| 1.2> = 0.999945
                             < 2.2| 2.2> = 0.999911   < 2.3| 2.3> = 0.999958   < 3.3| 3.3> = 0.999917   < 4.3| 4.3> = 0.999883
                             < 1.4| 1.4> = 0.999925


 Molecular orbital dump at record        2101.2

 ITERATION    DDIFF          GRAD             ENERGY        2-EL.EN.            DIPOLE MOMENTS         DIIS   ORB.
    1      0.000D+00      0.000D+00      -118.29330952    240.598684    0.00000    0.00000    0.02631    0    start
    2      0.000D+00      0.649D-02      -118.30710136    240.803013    0.00000    0.00000    0.03138    1    diag
    3      0.121D-01      0.638D-03      -118.30729821    240.674526    0.00000    0.00000    0.03111    2    diag
    4      0.161D-02      0.911D-04      -118.30730418    240.730563    0.00000    0.00000    0.03190    3    diag
    5      0.136D-03      0.304D-04      -118.30730495    240.714441    0.00000    0.00000    0.03167    4    diag
    6      0.491D-04      0.381D-05      -118.30730498    240.714857    0.00000    0.00000    0.03165    5    diag
    7      0.957D-05      0.109D-05      -118.30730498    240.714714    0.00000    0.00000    0.03166    0    orth

 Final occupancy:   6   2   4   1

 !RHF STATE  1.1 Energy              -118.307304977487
 Nuclear energy                        82.29766801
 One-electron energy                 -320.96232992
 Two-electron energy                  120.35735693
 Virial quotient                       -1.00175453
 !RHF STATE  1.1 Dipole moment          0.00000000     0.00000000     0.03165543
 Dipole moment /Debye                   0.00000000     0.00000000     0.08045481

 Orbital energies:

         1.1          2.1          3.1          4.1          5.1          6.1          7.1          8.1
    -11.219155   -11.210941    -1.049880    -0.798678    -0.595213    -0.474461     0.140381     0.184258

         1.2          2.2          3.2          4.2
     -0.620997    -0.466644     0.191289     0.232635

         1.3          2.3          3.3          4.3          5.3          6.3
    -11.210974    -0.923671    -0.548736    -0.475114     0.177379     0.242514

         1.4          2.4          3.4
     -0.529345     0.262608     0.379464


 HOMO      2.2    -0.466644 =     -12.6980eV
 LUMO      7.1     0.140381 =       3.8200eV
 LUMO-HOMO         0.607025 =      16.5180eV


 **********************************************************************************************************************************
 DATASETS  * FILE   NREC   LENGTH (MB)   RECORD NAMES
              1      18       30.59       500      610      700      900      950      970     1001      129      960     1100   
                                          VAR    BASINP    GEOM    SYMINP    ZMAT    AOBASIS   BASIS     P2S    ABASIS      S 
                                         1400     1410     1200     1210     1080     1600     1650     1700   
                                           T        V       H0       H01     AOSYM     SMH    MOLCAS    OPER   

              2       6        5.76       700     1000      520     2100     1001     2101   
                                         GEOM     BASIS   MCVARS     RHF     BASIS     RHF  

 PROGRAMS   *        TOTAL    HF-SCF       INT   CCSD(T)    HF-SCF       INT
 CPU TIMES  *         3.87      0.20      2.46      0.25      0.17      0.62
 REAL TIME  *         4.95 SEC
 DISK USED  *        44.30 MB (local),        1.53 GB (total)
 SF USED    *        10.37 MB
 GA USED    *         0.00 MB       (max)       0.00 MB       (current)
 **********************************************************************************************************************************


 PROGRAM * CCSD (Closed-shell coupled cluster)     Authors: C. Hampel, H.-J. Werner, 1991, M. Deegan, P.J. Knowles, 1992


 Convergence thresholds:  THRVAR = 1.00D-08  THRDEN = 1.00D-06

 CCSD(T)     terms to be evaluated (factor= 1.000)


 Number of core orbitals:           3 (   2   0   1   0 )
 Number of closed-shell orbitals:  10 (   4   2   3   1 )
 Number of external orbitals:     189 (  61  43  51  34 )

 Molecular orbitals read from record     2101.2  Type=RHF/CANONICAL (state 1.1)

 Number of N-1 electron functions:              10
 Number of N-2 electron functions:              55
 Number of singly external CSFs:               517
 Number of doubly external CSFs:            450088
 Total number of CSFs:                      450606

 Length of J-op  integral file:               0.00 MB
 Length of K-op  integral file:               0.74 MB
 Length of 3-ext integral record:             0.00 MB

 Memory could be reduced to 22.52 Mwords without degradation in triples

 Integral transformation finished. Total CPU:   0.50 sec, npass=  1  Memory used:   3.86 MW

 Reference energy:                   -118.30730498

 MP2 singlet pair energy:              -0.37406416
 MP2 triplet pair energy:              -0.17012447
 MP2 correlation energy:               -0.54418863
 MP2 total energy:                   -118.85149361

 SCS-MP2 correlation energy:           -0.55473222   (PS=  1.200000  PT=  0.333333)
 SCS-MP2 total energy:               -118.86203720

 ITER.      SQ.NORM     CORR.ENERGY   TOTAL ENERGY   ENERGY CHANGE        DEN1      VAR(S)    VAR(P)  DIIS     TIME  TIME/IT
   1      1.18924836    -0.58280832  -118.89011330    -0.03861969    -0.02466334  0.14D-02  0.27D-02  1  1     0.64     0.14
   2      1.20282010    -0.58545379  -118.89275876    -0.00264547    -0.01397027  0.29D-04  0.24D-03  2  2     0.78     0.16
   3      1.20639674    -0.58554105  -118.89284602    -0.00008726    -0.00231047  0.39D-05  0.15D-04  3  3     0.94     0.17
   4      1.20725526    -0.58556930  -118.89287428    -0.00002826    -0.00038505  0.31D-06  0.80D-06  4  4     1.10     0.18
   5      1.20737465    -0.58557091  -118.89287588    -0.00000160    -0.00004516  0.30D-07  0.65D-07  5  5     1.25     0.18
   6      1.20738919    -0.58556905  -118.89287403     0.00000185    -0.00000607  0.38D-08  0.45D-08  6  6     1.40     0.18
   7      1.20738870    -0.58556891  -118.89287388     0.00000015     0.00000020  0.40D-09  0.39D-09  6  2     1.57     0.18
   8      1.20738902    -0.58556892  -118.89287390    -0.00000001    -0.00000028  0.52D-10  0.30D-10  6  1     1.73     0.19

 Norm of t1 vector:      0.04955704      S-energy:    -0.00000025      T1 diagnostic:  0.00783566
                                                                       D1 diagnostic:  0.01414831


 Total CPU time for triples:      2.62 sec


 RESULTS
 =======

  Reference energy                   -118.307304977486
  CCSD singlet pair energy             -0.424951280531
  CCSD triplet pair energy             -0.160617390405
  CCSD correlation energy              -0.585568919076

  Triples (T) contribution             -0.021075433653
  Total correlation energy             -0.606644352729

  CCSD total energy                  -118.892873896562
  CCSD[T] energy                     -118.914445849254
  CCSD-T energy                      -118.913728213555
 !CCSD(T) total energy               -118.913949330215

 Timing summary (sec):

 STEP                 CPU(USER)    SYS     CPU(TOT)    WALL
 Transformation          0.50      0.38      0.88      0.89
 CCSD iterations         1.23      0.30      1.53      1.52
 Triples                 2.62      0.11      2.73      2.75

 Program statistics:

 Available memory in ccsd:               449999588
 Min. memory needed in ccsd:               1254723
 Max. memory used in ccsd:                 1649455
 Max. memory used in cckext:               1551989 ( 8 integral passes)



 **********************************************************************************************************************************
 DATASETS  * FILE   NREC   LENGTH (MB)   RECORD NAMES
              1      19      106.25       500      610      700      900      950      970     1001      129      960     1100   
                                          VAR    BASINP    GEOM    SYMINP    ZMAT    AOBASIS   BASIS     P2S    ABASIS      S 
                                         1400     1410     1200     1210     1080     1600     1650     1700     1380   
                                           T        V       H0       H01     AOSYM     SMH    MOLCAS    OPER     JKOP   

              2       6        5.76       700     1000      520     2100     1001     2101   
                                         GEOM     BASIS   MCVARS     RHF     BASIS     RHF  

 PROGRAMS   *        TOTAL   CCSD(T)    HF-SCF       INT   CCSD(T)    HF-SCF       INT
 CPU TIMES  *         8.26      4.38      0.20      2.46      0.25      0.17      0.62
 REAL TIME  *        10.18 SEC
 DISK USED  *       159.95 MB (local),        2.75 GB (total)
 SF USED    *       115.28 MB
 GA USED    *         0.00 MB       (max)       0.00 MB       (current)
 **********************************************************************************************************************************
 SETTING BASIS          =    VQZ


 Recomputing integrals since basis changed


 Using spherical harmonics

 Library entry C      S cc-pVQZ              selected for orbital group  1
 Library entry C      P cc-pVQZ              selected for orbital group  1
 Library entry C      D cc-pVQZ              selected for orbital group  1
 Library entry C      F cc-pVQZ              selected for orbital group  1
 Library entry C      G cc-pVQZ              selected for orbital group  1
 Library entry H      S cc-pVQZ              selected for orbital group  2
 Library entry H      P cc-pVQZ              selected for orbital group  2
 Library entry H      D cc-pVQZ              selected for orbital group  2
 Library entry H      F cc-pVQZ              selected for orbital group  2


 PROGRAM * SEWARD (Integral evaluation for generally contracted gaussian basis sets)     Author: Roland Lindh, 1990

 Geometry written to block  1 of record 700


 Point group  C2v 



 ATOMIC COORDINATES

 NR  ATOM    CHARGE       X              Y              Z

   1  C       6.00    0.000000000   -2.413053649   -0.490504872
   2  C       6.00    0.000000000    2.413053649   -0.490504872
   3  C       6.00    0.000000000    0.000000000    1.106994005
   4  H       1.00    0.000000000   -4.110118416    0.693710901
   5  H       1.00    0.000000000    4.110118416    0.693710901
   6  H       1.00    1.669945307   -2.499992390   -1.713749159
   7  H       1.00   -1.669945307   -2.499992390   -1.713749159
   8  H       1.00    1.669945307    2.499992390   -1.713749159
   9  H       1.00   -1.669945307    2.499992390   -1.713749159
  10  H       1.00    1.656445104    0.000000000    2.355830853
  11  H       1.00   -1.656445104    0.000000000    2.355830853

 Bond lengths in Bohr (Angstrom)

 1-3  2.893929954  1-4  2.069395037  1-6  2.071859614  1-7  2.071859614  2-3  2.893929954
     ( 1.531401781)     ( 1.095076694)     ( 1.096380892)     ( 1.096380892)     ( 1.531401781)

  2- 5  2.069395037   2- 8  2.071859614   2- 9  2.071859614   3-10  2.074464715   3-11  2.074464715
       ( 1.095076694)       ( 1.096380892)       ( 1.096380892)       ( 1.097759452)       ( 1.097759452)

 Bond angles

  1- 3- 2  112.98898772   1- 3-10  109.40945171   1- 3-11  109.40945171   2- 3-10  109.40945171

  2- 3-11  109.40945171   3- 1- 4  111.58706858   3- 1- 6  111.15577563   3- 1- 7  111.15577563

  3-2-5  111.58706858   3-2-8  111.15577563   3-2-9  111.15577563   4-1-6  107.66499039

  4-1-7  107.66499039   5-2-8  107.66499039   5-2-9  107.66499039   6-1-7  107.41635533

  8- 2- 9  107.41635533  10- 3-11  105.97282764

 NUCLEAR CHARGE:                   26
 NUMBER OF PRIMITIVE AOS:         545
 NUMBER OF SYMMETRY AOS:          460
 NUMBER OF CONTRACTIONS:          405   (  127A1  +   93B1  +  108B2  +   77A2  )
 NUMBER OF CORE ORBITALS:           3   (    2A1  +    0B1  +    1B2  +    0A2  )
 NUMBER OF VALENCE ORBITALS:       20   (    8A1  +    4B1  +    6B2  +    2A2  )


 NUCLEAR REPULSION ENERGY   82.29766801


 Eigenvalues of metric

         1 0.105E-03 0.127E-03 0.256E-03 0.305E-03 0.435E-03 0.474E-03 0.830E-03 0.122E-02
         2 0.185E-03 0.259E-03 0.137E-02 0.158E-02 0.278E-02 0.372E-02 0.402E-02 0.484E-02
         3 0.107E-03 0.211E-03 0.319E-03 0.570E-03 0.682E-03 0.138E-02 0.204E-02 0.288E-02
         4 0.243E-03 0.122E-02 0.215E-02 0.399E-02 0.456E-02 0.547E-02 0.744E-02 0.874E-02


 Contracted 2-electron integrals neglected if value below      1.0D-11
 AO integral compression algorithm  1   Integral accuracy      1.0D-11

     3943.170 MB (compressed) written to integral file ( 48.7%)

     Node minimum: 183.763 MB, node maximum: 306.708 MB


 NUMBER OF SORTED TWO-ELECTRON INTEGRALS:   53186064.     BUFFER LENGTH:  32768
 NUMBER OF SEGMENTS:   2  SEGMENT LENGTH:   31988598      RECORD LENGTH: 524288

 Memory used in sort:      32.55 MW

 SORT1 READ  1011992037. AND WROTE    51840180. INTEGRALS IN    150 RECORDS. CPU TIME:    20.11 SEC, REAL TIME:    21.53 SEC
 SORT2 READ   829884580. AND WROTE   852008308. INTEGRALS IN  14400 RECORDS. CPU TIME:     1.56 SEC, REAL TIME:     2.08 SEC

 Node minimum:    53149296.  Node maximum:    53298986. integrals

 OPERATOR DM      FOR CENTER  0  COORDINATES:    0.000000    0.000000    0.000000


 **********************************************************************************************************************************
 DATASETS  * FILE   NREC   LENGTH (MB)   RECORD NAMES
              1      18       31.83       500      610      700      900      950      970     1002      129      960     1100   
                                          VAR    BASINP    GEOM    SYMINP    ZMAT    AOBASIS   BASIS     P2S    ABASIS      S 
                                         1400     1410     1200     1210     1080     1600     1650     1700   
                                           T        V       H0       H01     AOSYM     SMH    MOLCAS    OPER   

              2       7        6.06       700     1000      520     2100     1001     2101     1002   
                                         GEOM     BASIS   MCVARS     RHF     BASIS     RHF     BASIS   

 PROGRAMS   *        TOTAL       INT   CCSD(T)    HF-SCF       INT   CCSD(T)    HF-SCF       INT
 CPU TIMES  *        34.05     25.79      4.38      0.20      2.46      0.25      0.17      0.62
 REAL TIME  *        38.28 SEC
 DISK USED  *       159.95 MB (local),       15.87 GB (total)
 SF USED    *       115.28 MB
 GA USED    *         0.00 MB       (max)       0.00 MB       (current)
 **********************************************************************************************************************************


 PROGRAM * RHF-SCF (CLOSED SHELL)       Authors: W. Meyer, H.-J. Werner


 NUMBER OF ELECTRONS:      13+   13-
 CONVERGENCE THRESHOLDS:    1.00E-05 (Density)    1.00E-07 (Energy)
 MAX. NUMBER OF ITERATIONS:       60
 INTERPOLATION TYPE:            DIIS
 INTERPOLATION STEPS:              2 (START)      1 (STEP)
 LEVEL SHIFTS:                  0.00 (CLOSED)  0.00 (OPEN) 



 Molecular orbitals read from record     2101.2  Type=RHF/CANONICAL (state 1.1)

 Present basis size:      127   93  108   77
 Previous basis size:      67   45   55   35
 Previous occupation:       6    2    4    1
 Previous closed-shells:    6    2    4    1
 Previous core-orbitals:    2    0    1    0
 Present occupation:        6    2    4    1
 Present closed-shells:     6    2    4    1
 Present core-orbitals:     2    0    1    0
 Wavefunction symmetry:    1   Singlet 

 Orbital overlap <old|new>:  < 1.1| 1.1> = 0.999999   < 2.1| 2.1> = 0.999999   < 1.3| 1.3> = 0.999999   < 3.1| 3.1> = 0.999997
                             < 4.1| 4.1> = 0.999995   < 5.1| 5.1> = 0.999988   < 6.1| 6.1> = 0.999983   < 1.2| 1.2> = 0.999990
                             < 2.2| 2.2> = 0.999987   < 2.3| 2.3> = 0.999996   < 3.3| 3.3> = 0.999986   < 4.3| 4.3> = 0.999982
                             < 1.4| 1.4> = 0.999987


 Molecular orbital dump at record        2102.2

 ITERATION    DDIFF          GRAD             ENERGY        2-EL.EN.            DIPOLE MOMENTS         DIIS   ORB.
    1      0.000D+00      0.000D+00      -118.31365405    240.713083    0.00000    0.00000    0.03193    0    start
    2      0.000D+00      0.196D-02      -118.31492361    240.754685    0.00000    0.00000    0.03248    1    diag
    3      0.367D-02      0.110D-03      -118.31493236    240.734214    0.00000    0.00000    0.03257    2    diag
    4      0.435D-03      0.120D-04      -118.31493259    240.745166    0.00000    0.00000    0.03262    3    diag
    5      0.513D-04      0.496D-05      -118.31493262    240.741346    0.00000    0.00000    0.03258    4    diag
    6      0.847D-05      0.658D-06      -118.31493262    240.741555    0.00000    0.00000    0.03257    0    orth

 Final occupancy:   6   2   4   1

 !RHF STATE  1.1 Energy              -118.314932624220
 Nuclear energy                        82.29766801
 One-electron energy                 -320.98337838
 Two-electron energy                  120.37077774
 Virial quotient                       -1.00145581
 !RHF STATE  1.1 Dipole moment          0.00000000     0.00000000     0.03257411
 Dipole moment /Debye                   0.00000000     0.00000000     0.08278970

 Orbital energies:

         1.1          2.1          3.1          4.1          5.1          6.1          7.1          8.1
    -11.218021   -11.209936    -1.049592    -0.798577    -0.595284    -0.474593     0.113258     0.152605

         1.2          2.2          3.2          4.2
     -0.621070    -0.466873     0.161799     0.200617

         1.3          2.3          3.3          4.3          5.3          6.3
    -11.209970    -0.923479    -0.548852    -0.475215     0.144663     0.208090

         1.4          2.4          3.4
     -0.529450     0.232118     0.295318


 HOMO      2.2    -0.466873 =     -12.7043eV
 LUMO      7.1     0.113258 =       3.0819eV
 LUMO-HOMO         0.580131 =      15.7862eV


 **********************************************************************************************************************************
 DATASETS  * FILE   NREC   LENGTH (MB)   RECORD NAMES
              1      18       31.85       500      610      700      900      950      970     1002      129      960     1100   
                                          VAR    BASINP    GEOM    SYMINP    ZMAT    AOBASIS   BASIS     P2S    ABASIS      S 
                                         1400     1410     1200     1210     1080     1600     1650     1700   
                                           T        V       H0       H01     AOSYM     SMH    MOLCAS    OPER   

              2       8        9.41       700     1000      520     2100     1001     2101     1002     2102   
                                         GEOM     BASIS   MCVARS     RHF     BASIS     RHF     BASIS     RHF  

 PROGRAMS   *        TOTAL    HF-SCF       INT   CCSD(T)    HF-SCF       INT   CCSD(T)    HF-SCF       INT
 CPU TIMES  *        35.17      1.12     25.79      4.38      0.20      2.46      0.25      0.17      0.62
 REAL TIME  *        39.57 SEC
 DISK USED  *       159.95 MB (local),       15.87 GB (total)
 SF USED    *       115.28 MB
 GA USED    *         0.00 MB       (max)       0.00 MB       (current)
 **********************************************************************************************************************************
 Molecular orbitals read from record     2102.2  Type=RHF/CANONICAL (state 1.1)
 Occupation numbers read from record     2102.2  Type=RHF/RHF (state 1.1)
 Orbital energies read from record       2102.2  Type=RHF/CANONICAL (state 1.1)
 Redundancy group numbers read from rec  2102.2  Type=RHF/RHF (state 1.1)

 HF/cc-pVQZ energy=   -118.314932624220

          HF-SCF         CCSD(T)          HF-SCF         CCSD(T)          HF-SCF
   -118.31493262   -118.91394933   -118.30730498   -118.78100989   -118.27243840
 **********************************************************************************************************************************
 Molpro calculation terminated
