
 Primary working directories    : /home/tmp/molpro/molpro.BY7FOmQNf8
 Secondary working directories  : /home/tmp/molpro/molpro.BY7FOmQNf8
 Wavefunction directory         : /root/wfu/
 Main file repository           : /home/tmp/molpro/molpro.BY7FOmQNf8/

 id        : scuxyl

 Nodes                nprocs
 localhost.localdomain    2

 Using customized tuning parameters: mindgm=1; mindgv=20; mindgc=4; mindgr=1; noblas=0; minvec=7
 default implementation of scratch files=sf  


 Variables initialized (934), CPU time= 0.00 sec
 ***,cis-CC=C(C)C
 
 memory,500,m
 geometry={
 C        0.268896       -2.097857       -0.000000
 C        0.736369       -0.670065       -0.000000
 C        0.000000        0.451399        0.000000
 C       -1.508226        0.492982        0.000000
 C        0.661530        1.809037       -0.000000
 H       -0.818990       -2.195502        0.000000
 H        0.649800       -2.633573        0.879215
 H        0.649800       -2.633573       -0.879215
 H        1.820554       -0.549971       -0.000000
 H       -1.880285        1.036338       -0.878615
 H       -1.880285        1.036338        0.878615
 H       -1.968915       -0.496282        0.000000
 H        1.752287        1.732020       -0.000000
 H        0.362313        2.395613        0.879047
 H        0.362313        2.395613       -0.879047
 }
 
 basis=vdz
 {hf;wf,40,spin,0,state,1}
 ccsd(t)
 
 basis=vtz
 hf
 ccsd(t)
 
 basis=vqz
 hf
 Commands  initialized (763), CPU time= 0.01 sec, 617 directives.
 Default parameters read. Elapsed time= 0.04 sec

 Checking input...
 Passed
1


                                         ***  PROGRAM SYSTEM MOLPRO  ***
                                       Copyright, TTI GmbH Stuttgart, 2015
                                    Version 2019.2 linked Jun  8 2019 11:26:33


 **********************************************************************************************************************************
 LABEL *   cis-CC=C(C)C                                                                  
  64 bit mpp version                                                                     DATE: 10-Nov-22          TIME: 15:40:38  
 **********************************************************************************************************************************

 SHA1:             8135a10abc80eafa5b3ae28ffc55be4890dc4c84
 **********************************************************************************************************************************

Geometry recognized as XYZ


 Variable memory set to  500000000 words,  buffer space 

 SETTING BASIS          =    VDZ


 Recomputing integrals since basis changed


 Using spherical harmonics

 Library entry C      S cc-pVDZ              selected for orbital group  1
 Library entry C      P cc-pVDZ              selected for orbital group  1
 Library entry C      D cc-pVDZ              selected for orbital group  1
 Library entry H      S cc-pVDZ              selected for orbital group  2
 Library entry H      P cc-pVDZ              selected for orbital group  2


 PROGRAM * SEWARD (Integral evaluation for generally contracted gaussian basis sets)     Author: Roland Lindh, 1990

 Geometry written to block  1 of record 700


 Point group  Cs  



 ATOMIC COORDINATES

 NR  ATOM    CHARGE       X              Y              Z

   1  C       6.00    0.508139796   -3.964375179    0.000000000
   2  C       6.00    1.391535737   -1.266239336    0.000000000
   3  C       6.00    0.000000000    0.853020483    0.000000000
   4  C       6.00   -2.850134074    0.931600964    0.000000000
   5  C       6.00    1.250110523    3.418584479    0.000000000
   6  H       1.00   -1.547666799   -4.148897486    0.000000000
   7  H       1.00    1.227944036   -4.976731699    1.661475555
   8  H       1.00    1.227944036   -4.976731699   -1.661475555
   9  H       1.00    3.440348455   -1.039294566    0.000000000
  10  H       1.00   -3.553223686    1.958394992   -1.660341719
  11  H       1.00   -3.553223686    1.958394992    1.660341719
  12  H       1.00   -3.720710113   -0.937837061    0.000000000
  13  H       1.00    3.311342522    3.273043442    0.000000000
  14  H       1.00    0.684672341    4.527052470    1.661158081
  15  H       1.00    0.684672341    4.527052470   -1.661158081

 Bond lengths in Bohr (Angstrom)

 1-2  2.839071224  1-6  2.064071035  1-7  2.074484246  1-8  2.074484246  2-3  2.535277871
     ( 1.502371792)     ( 1.092259353)     ( 1.097769787)     ( 1.097769787)     ( 1.341611273)

  2- 9  2.061343611   3- 4  2.851217132   3- 5  2.853926232   4-10  2.074939903   4-11  2.074939903
       ( 1.090816063)       ( 1.508799129)       ( 1.510232724)       ( 1.098010911)       ( 1.098010911)

  4-12  2.062207838   5-13  2.066363846   5-14  2.075540362   5-15  2.075540362
       ( 1.091273392)       ( 1.093472657)       ( 1.098328660)       ( 1.098328660)

 Bond angles

  1-2-3  128.58158505   1-2-9  114.44977440   2-1-6  113.25788367   2-1-7  110.84332104

  2-1-8  110.84332104   2-3-4  124.86875498   2-3-5  120.73216424   3-2-9  116.96864055

  3- 4-10  110.63159843   3- 4-11  110.63159843   3- 4-12  113.39156980   3- 5-13  111.93949046

  3- 5-14  111.14734907   3- 5-15  111.14734907   4- 3- 5  114.39908078   6- 1- 7  107.57562441

  6- 1- 8  107.57562441   7- 1- 8  106.43421285  10- 4-11  106.29609064  10- 4-12  107.79124809

 11- 4-12  107.79124809  13- 5-14  108.02118537  13- 5-15  108.02118537  14- 5-15  106.32701613

 NUCLEAR CHARGE:                   40
 NUMBER OF PRIMITIVE AOS:         205
 NUMBER OF SYMMETRY AOS:          200
 NUMBER OF CONTRACTIONS:          120   (   81A'  +   39A"  )
 NUMBER OF CORE ORBITALS:           5   (    5A'  +    0A"  )
 NUMBER OF VALENCE ORBITALS:       30   (   22A'  +    8A"  )


 NUCLEAR REPULSION ENERGY  174.01504123


 Eigenvalues of metric

         1 0.130E-02 0.204E-02 0.386E-02 0.447E-02 0.138E-01 0.147E-01 0.166E-01 0.218E-01
         2 0.317E-01 0.341E-01 0.373E-01 0.391E-01 0.417E-01 0.521E-01 0.830E-01 0.119E+00


 Contracted 2-electron integrals neglected if value below      1.0D-11
 AO integral compression algorithm  1   Integral accuracy      1.0D-11

     57.672 MB (compressed) written to integral file ( 50.3%)

     Node minimum: 28.574 MB, node maximum: 29.098 MB


 NUMBER OF SORTED TWO-ELECTRON INTEGRALS:    6795320.     BUFFER LENGTH:  32768
 NUMBER OF SEGMENTS:   1  SEGMENT LENGTH:    6795320      RECORD LENGTH: 524288

 Memory used in sort:       7.35 MW

 SORT1 READ    14414191. AND WROTE     6388473. INTEGRALS IN     19 RECORDS. CPU TIME:     0.17 SEC, REAL TIME:     0.24 SEC
 SORT2 READ    12777110. AND WROTE    13591911. INTEGRALS IN    218 RECORDS. CPU TIME:     0.12 SEC, REAL TIME:     0.16 SEC

 Node minimum:     6795320.  Node maximum:     6796591. integrals

 OPERATOR DM      FOR CENTER  0  COORDINATES:    0.000000    0.000000    0.000000


 **********************************************************************************************************************************
 DATASETS  * FILE   NREC   LENGTH (MB)   RECORD NAMES
              1      18       30.51       500      610      700      900      950      970     1000      129      960     1100   
                                          VAR    BASINP    GEOM    SYMINP    ZMAT    AOBASIS   BASIS     P2S    ABASIS      S 
                                         1400     1410     1200     1210     1080     1600     1650     1700   
                                           T        V       H0       H01     AOSYM     SMH    MOLCAS    OPER   

 PROGRAMS   *        TOTAL       INT
 CPU TIMES  *         1.35      1.26
 REAL TIME  *         1.68 SEC
 DISK USED  *        31.05 MB (local),      274.43 MB (total)
 GA USED    *         0.00 MB       (max)       0.00 MB       (current)
 **********************************************************************************************************************************


 PROGRAM * RHF-SCF (CLOSED SHELL)       Authors: W. Meyer, H.-J. Werner


 NUMBER OF ELECTRONS:      20+   20-
 CONVERGENCE THRESHOLDS:    1.00E-05 (Density)    1.00E-07 (Energy)
 MAX. NUMBER OF ITERATIONS:       60
 INTERPOLATION TYPE:            DIIS
 INTERPOLATION STEPS:              2 (START)      1 (STEP)
 LEVEL SHIFTS:                  0.00 (CLOSED)  0.00 (OPEN) 



 Orbital guess generated from atomic densities. Full valence occupancy:   27   8

 Molecular orbital dump at record        2100.2

 Initial occupancy:  16   4

 ITERATION    DDIFF          GRAD             ENERGY        2-EL.EN.            DIPOLE MOMENTS         DIIS   ORB.
    1      0.000D+00      0.000D+00      -195.09084979    477.924585   -0.19798    0.13470    0.00000    0    start
    2      0.000D+00      0.579D-02      -195.15309100    473.144162   -0.06580    0.02545    0.00000    1    diag
    3      0.128D-01      0.212D-02      -195.16011042    475.119913   -0.08072    0.04511    0.00000    2    diag
    4      0.484D-02      0.670D-03      -195.16116646    474.632815   -0.07713    0.03204    0.00000    3    diag
    5      0.176D-02      0.951D-04      -195.16118659    474.652611   -0.07600    0.02991    0.00000    4    diag
    6      0.281D-03      0.324D-04      -195.16118832    474.651313   -0.07661    0.02940    0.00000    5    diag
    7      0.904D-04      0.547D-05      -195.16118840    474.652291   -0.07646    0.02881    0.00000    6    diag
    8      0.158D-04      0.252D-05      -195.16118841    474.652031   -0.07654    0.02879    0.00000    7    diag
    9      0.519D-05      0.651D-06      -195.16118841    474.652155   -0.07647    0.02866    0.00000    0    orth

 Final occupancy:  16   4

 !RHF STATE  1.1 Energy              -195.161188413172
 Nuclear energy                       174.01504123
 One-electron energy                 -606.50230698
 Two-electron energy                  237.32607734
 Virial quotient                       -1.00158147
 !RHF STATE  1.1 Dipole moment         -0.07647178     0.02866359     0.00000000
 Dipole moment /Debye                  -0.19435915     0.07285080     0.00000000

 Orbital energies:

         1.1          2.1          3.1          4.1          5.1          6.1          7.1          8.1          9.1         10.1
    -11.232428   -11.223982   -11.223196   -11.222644   -11.220613    -1.091674    -0.989073    -0.935858    -0.868265    -0.699413

        11.1         12.1         13.1         14.1         15.1         16.1         17.1         18.1
     -0.626443    -0.591298    -0.528355    -0.513487    -0.500312    -0.462361     0.181939     0.208815

         1.2          2.2          3.2          4.2          5.2          6.2
     -0.586302    -0.551683    -0.529067    -0.328622     0.184457     0.262889


 HOMO      4.2    -0.328622 =      -8.9423eV
 LUMO     17.1     0.181939 =       4.9508eV
 LUMO-HOMO         0.510561 =      13.8931eV


 **********************************************************************************************************************************
 DATASETS  * FILE   NREC   LENGTH (MB)   RECORD NAMES
              1      18       30.52       500      610      700      900      950      970     1000      129      960     1100   
                                          VAR    BASINP    GEOM    SYMINP    ZMAT    AOBASIS   BASIS     P2S    ABASIS      S 
                                         1400     1410     1200     1210     1080     1600     1650     1700   
                                           T        V       H0       H01     AOSYM     SMH    MOLCAS    OPER   

              2       4        3.17       700     1000      520     2100   
                                         GEOM     BASIS   MCVARS     RHF  

 PROGRAMS   *        TOTAL    HF-SCF       INT
 CPU TIMES  *         1.76      0.41      1.26
 REAL TIME  *         2.14 SEC
 DISK USED  *        34.27 MB (local),      280.86 MB (total)
 SF USED    *         0.03 MB
 GA USED    *         0.00 MB       (max)       0.00 MB       (current)
 **********************************************************************************************************************************


 PROGRAM * CCSD (Closed-shell coupled cluster)     Authors: C. Hampel, H.-J. Werner, 1991, M. Deegan, P.J. Knowles, 1992


 Convergence thresholds:  THRVAR = 1.00D-08  THRDEN = 1.00D-06

 CCSD(T)     terms to be evaluated (factor= 1.000)


 Number of core orbitals:           5 (   5   0 )
 Number of closed-shell orbitals:  15 (  11   4 )
 Number of external orbitals:     100 (  65  35 )

 Molecular orbitals read from record     2100.2  Type=RHF/CANONICAL (state 1.1)

 Number of N-1 electron functions:              15
 Number of N-2 electron functions:             120
 Number of singly external CSFs:               855
 Number of doubly external CSFs:            574275
 Total number of CSFs:                      575131

 Length of J-op  integral file:               0.00 MB
 Length of K-op  integral file:               0.55 MB
 Length of 3-ext integral record:             0.00 MB

 Memory could be reduced to 10.35 Mwords without degradation in triples

 Integral transformation finished. Total CPU:   0.27 sec, npass=  1  Memory used:   4.64 MW

 Reference energy:                   -195.16118841

 MP2 singlet pair energy:              -0.46270558
 MP2 triplet pair energy:              -0.24437774
 MP2 correlation energy:               -0.70708332
 MP2 total energy:                   -195.86827173

 SCS-MP2 correlation energy:           -0.70730395   (PS=  1.200000  PT=  0.333333)
 SCS-MP2 total energy:               -195.86849237

 ITER.      SQ.NORM     CORR.ENERGY   TOTAL ENERGY   ENERGY CHANGE        DEN1      VAR(S)    VAR(P)  DIIS     TIME  TIME/IT
   1      1.28223818    -0.76783197  -195.92902038    -0.06074865    -0.03976108  0.22D-02  0.48D-02  1  1     0.63     0.37
   2      1.30692000    -0.77300288  -195.93419129    -0.00517091    -0.02270958  0.57D-04  0.49D-03  2  2     1.02     0.39
   3      1.31273613    -0.77324123  -195.93442965    -0.00023836    -0.00291734  0.15D-04  0.42D-04  3  3     1.40     0.56
   4      1.31491217    -0.77332845  -195.93451686    -0.00008721    -0.00073020  0.82D-06  0.41D-05  4  4     1.78     0.53
   5      1.31539316    -0.77333317  -195.93452159    -0.00000473    -0.00011383  0.60D-07  0.45D-06  5  5     2.17     0.51
   6      1.31548399    -0.77332752  -195.93451594     0.00000565    -0.00001466  0.87D-08  0.29D-07  6  6     2.55     0.49
   7      1.31549524    -0.77332811  -195.93451652    -0.00000058     0.00000189  0.19D-08  0.28D-08  6  2     2.93     0.48
   8      1.31549890    -0.77332794  -195.93451636     0.00000016    -0.00000064  0.27D-09  0.24D-09  6  1     3.31     0.48

 Norm of t1 vector:      0.06516484      S-energy:     0.00000003      T1 diagnostic:  0.00841275
                                                                       D1 diagnostic:  0.02835779

 Doubles amplitudes (print threshold =  0.500E-01):

         I         J         SYM. A    SYM. B    A         B      T(IJ, AB)

        15        15         2         2         1         1     -0.09890586


 Total CPU time for triples:      4.74 sec


 RESULTS
 =======

  Reference energy                   -195.161188413170
  CCSD singlet pair energy             -0.547068635640
  CCSD triplet pair energy             -0.226259341541
  CCSD correlation energy              -0.773327942512

  Triples (T) contribution             -0.025094503798
  Total correlation energy             -0.798422446310

  CCSD total energy                  -195.934516355682
  CCSD[T] energy                     -195.960161973442
  CCSD-T energy                      -195.959357780518
 !CCSD(T) total energy               -195.959610859480

 Timing summary (sec):

 STEP                 CPU(USER)    SYS     CPU(TOT)    WALL
 Transformation          0.28      0.09      0.37      0.37
 CCSD iterations         3.03      0.30      3.33      3.82
 Triples                 4.74      0.26      5.00      5.01

 Program statistics:

 Available memory in ccsd:               499999084
 Min. memory needed in ccsd:               1541461
 Max. memory used in ccsd:                 2042542
 Max. memory used in cckext:               2128289 ( 8 integral passes)



 **********************************************************************************************************************************
 DATASETS  * FILE   NREC   LENGTH (MB)   RECORD NAMES
              1      19       72.11       500      610      700      900      950      970     1000      129      960     1100   
                                          VAR    BASINP    GEOM    SYMINP    ZMAT    AOBASIS   BASIS     P2S    ABASIS      S 
                                         1400     1410     1200     1210     1080     1600     1650     1700     1380   
                                           T        V       H0       H01     AOSYM     SMH    MOLCAS    OPER     JKOP   

              2       4        3.17       700     1000      520     2100   
                                         GEOM     BASIS   MCVARS     RHF  

 PROGRAMS   *        TOTAL   CCSD(T)    HF-SCF       INT
 CPU TIMES  *         9.84      8.07      0.41      1.26
 REAL TIME  *        11.59 SEC
 DISK USED  *       134.40 MB (local),      422.07 MB (total)
 SF USED    *        94.95 MB
 GA USED    *         0.00 MB       (max)       0.00 MB       (current)
 **********************************************************************************************************************************
 SETTING BASIS          =    VTZ


 Recomputing integrals since basis changed


 Using spherical harmonics

 Library entry C      S cc-pVTZ              selected for orbital group  1
 Library entry C      P cc-pVTZ              selected for orbital group  1
 Library entry C      D cc-pVTZ              selected for orbital group  1
 Library entry C      F cc-pVTZ              selected for orbital group  1
 Library entry H      S cc-pVTZ              selected for orbital group  2
 Library entry H      P cc-pVTZ              selected for orbital group  2
 Library entry H      D cc-pVTZ              selected for orbital group  2


 PROGRAM * SEWARD (Integral evaluation for generally contracted gaussian basis sets)     Author: Roland Lindh, 1990

 Geometry written to block  1 of record 700


 Point group  Cs  



 ATOMIC COORDINATES

 NR  ATOM    CHARGE       X              Y              Z

   1  C       6.00    0.508139796   -3.964375179    0.000000000
   2  C       6.00    1.391535737   -1.266239336    0.000000000
   3  C       6.00    0.000000000    0.853020483    0.000000000
   4  C       6.00   -2.850134074    0.931600964    0.000000000
   5  C       6.00    1.250110523    3.418584479    0.000000000
   6  H       1.00   -1.547666799   -4.148897486    0.000000000
   7  H       1.00    1.227944036   -4.976731699    1.661475555
   8  H       1.00    1.227944036   -4.976731699   -1.661475555
   9  H       1.00    3.440348455   -1.039294566    0.000000000
  10  H       1.00   -3.553223686    1.958394992   -1.660341719
  11  H       1.00   -3.553223686    1.958394992    1.660341719
  12  H       1.00   -3.720710113   -0.937837061    0.000000000
  13  H       1.00    3.311342522    3.273043442    0.000000000
  14  H       1.00    0.684672341    4.527052470    1.661158081
  15  H       1.00    0.684672341    4.527052470   -1.661158081

 Bond lengths in Bohr (Angstrom)

 1-2  2.839071224  1-6  2.064071035  1-7  2.074484246  1-8  2.074484246  2-3  2.535277871
     ( 1.502371792)     ( 1.092259353)     ( 1.097769787)     ( 1.097769787)     ( 1.341611273)

  2- 9  2.061343611   3- 4  2.851217132   3- 5  2.853926232   4-10  2.074939903   4-11  2.074939903
       ( 1.090816063)       ( 1.508799129)       ( 1.510232724)       ( 1.098010911)       ( 1.098010911)

  4-12  2.062207838   5-13  2.066363846   5-14  2.075540362   5-15  2.075540362
       ( 1.091273392)       ( 1.093472657)       ( 1.098328660)       ( 1.098328660)

 Bond angles

  1-2-3  128.58158505   1-2-9  114.44977440   2-1-6  113.25788367   2-1-7  110.84332104

  2-1-8  110.84332104   2-3-4  124.86875498   2-3-5  120.73216424   3-2-9  116.96864055

  3- 4-10  110.63159843   3- 4-11  110.63159843   3- 4-12  113.39156980   3- 5-13  111.93949046

  3- 5-14  111.14734907   3- 5-15  111.14734907   4- 3- 5  114.39908078   6- 1- 7  107.57562441

  6- 1- 8  107.57562441   7- 1- 8  106.43421285  10- 4-11  106.29609064  10- 4-12  107.79124809

 11- 4-12  107.79124809  13- 5-14  108.02118537  13- 5-15  108.02118537  14- 5-15  106.32701613

 NUCLEAR CHARGE:                   40
 NUMBER OF PRIMITIVE AOS:         405
 NUMBER OF SYMMETRY AOS:          370
 NUMBER OF CONTRACTIONS:          290   (  182A'  +  108A"  )
 NUMBER OF CORE ORBITALS:           5   (    5A'  +    0A"  )
 NUMBER OF VALENCE ORBITALS:       30   (   22A'  +    8A"  )


 NUCLEAR REPULSION ENERGY  174.01504123


 Eigenvalues of metric

         1 0.201E-03 0.343E-03 0.761E-03 0.923E-03 0.101E-02 0.115E-02 0.123E-02 0.131E-02
         2 0.152E-02 0.175E-02 0.194E-02 0.889E-02 0.100E-01 0.105E-01 0.142E-01 0.160E-01


 Contracted 2-electron integrals neglected if value below      1.0D-11
 AO integral compression algorithm  1   Integral accuracy      1.0D-11

     1436.549 MB (compressed) written to integral file ( 38.4%)

     Node minimum: 695.992 MB, node maximum: 740.557 MB


 NUMBER OF SORTED TWO-ELECTRON INTEGRALS:  225024131.     BUFFER LENGTH:  32768
 NUMBER OF SEGMENTS:  15  SEGMENT LENGTH:   15999992      RECORD LENGTH: 524288

 Memory used in sort:      16.56 MW

 SORT1 READ   467562362. AND WROTE   181297405. INTEGRALS IN    526 RECORDS. CPU TIME:     6.23 SEC, REAL TIME:     7.64 SEC
 SORT2 READ   362395927. AND WROTE   450053646. INTEGRALS IN   5650 RECORDS. CPU TIME:     2.96 SEC, REAL TIME:     3.74 SEC

 Node minimum:   225024131.  Node maximum:   225029515. integrals

 OPERATOR DM      FOR CENTER  0  COORDINATES:    0.000000    0.000000    0.000000


 **********************************************************************************************************************************
 DATASETS  * FILE   NREC   LENGTH (MB)   RECORD NAMES
              1      18       31.88       500      610      700      900      950      970     1001      129      960     1100   
                                          VAR    BASINP    GEOM    SYMINP    ZMAT    AOBASIS   BASIS     P2S    ABASIS      S 
                                         1400     1410     1200     1210     1080     1600     1650     1700   
                                           T        V       H0       H01     AOSYM     SMH    MOLCAS    OPER   

              2       5        3.39       700     1000      520     2100     1001   
                                         GEOM     BASIS   MCVARS     RHF     BASIS   

 PROGRAMS   *        TOTAL       INT   CCSD(T)    HF-SCF       INT
 CPU TIMES  *        29.86     20.01      8.07      0.41      1.26
 REAL TIME  *        34.25 SEC
 DISK USED  *       134.40 MB (local),        6.02 GB (total)
 SF USED    *        94.95 MB
 GA USED    *         0.00 MB       (max)       0.00 MB       (current)
 **********************************************************************************************************************************


 PROGRAM * RHF-SCF (CLOSED SHELL)       Authors: W. Meyer, H.-J. Werner


 NUMBER OF ELECTRONS:      20+   20-
 CONVERGENCE THRESHOLDS:    1.00E-05 (Density)    1.00E-07 (Energy)
 MAX. NUMBER OF ITERATIONS:       60
 INTERPOLATION TYPE:            DIIS
 INTERPOLATION STEPS:              2 (START)      1 (STEP)
 LEVEL SHIFTS:                  0.00 (CLOSED)  0.00 (OPEN) 



 Molecular orbitals read from record     2100.2  Type=RHF/CANONICAL (state 1.1)

 Present basis size:      182  108
 Previous basis size:      81   39
 Previous occupation:      16    4
 Previous closed-shells:   16    4
 Previous core-orbitals:    5    0
 Present occupation:       16    4
 Present closed-shells:    16    4
 Present core-orbitals:     5    0
 Wavefunction symmetry:    1   Singlet 

 Orbital overlap <old|new>:  < 1.1| 1.1> = 0.999999   < 2.1| 2.1> = 0.999999   < 3.1| 3.1> = 0.999999   < 4.1| 4.1> = 0.999999
                             < 5.1| 5.1> = 0.999999   < 6.1| 6.1> = 0.999929   < 7.1| 7.1> = 0.999949   < 8.1| 8.1> = 0.999959
                             < 9.1| 9.1> = 0.999942   <10.1|10.1> = 0.999932   <11.1|11.1> = 0.999926   <12.1|12.1> = 0.999914
                             <13.1|13.1> = 0.999925   <14.1|14.1> = 0.999923   <15.1|15.1> = 0.999898   <16.1|16.1> = 0.999882
                             < 1.2| 1.2> = 0.999913   < 2.2| 2.2> = 0.999926   < 3.2| 3.2> = 0.999925   < 4.2| 4.2> = 0.999788


 Molecular orbital dump at record        2101.2

 ITERATION    DDIFF          GRAD             ENERGY        2-EL.EN.            DIPOLE MOMENTS         DIIS   ORB.
    1      0.000D+00      0.000D+00      -195.19292408    474.671928   -0.07582    0.02821    0.00000    0    start
    2      0.000D+00      0.398D-02      -195.21470172    474.954652   -0.07488    0.02213    0.00000    1    diag
    3      0.961D-02      0.364D-03      -195.21498479    474.770733   -0.07868    0.02480    0.00000    2    diag
    4      0.128D-02      0.471D-04      -195.21499261    474.848184   -0.07773    0.02446    0.00000    3    diag
    5      0.110D-03      0.165D-04      -195.21499374    474.823784   -0.07888    0.02561    0.00000    4    diag
    6      0.338D-04      0.394D-05      -195.21499382    474.824824   -0.07872    0.02560    0.00000    5    diag
    7      0.785D-05      0.145D-05      -195.21499383    474.824934   -0.07897    0.02596    0.00000    0    orth

 Final occupancy:  16   4

 !RHF STATE  1.1 Energy              -195.214993827642
 Nuclear energy                       174.01504123
 One-electron energy                 -606.64250189
 Two-electron energy                  237.41246683
 Virial quotient                       -1.00169450
 !RHF STATE  1.1 Dipole moment         -0.07896953     0.02596369     0.00000000
 Dipole moment /Debye                  -0.20070738     0.06598880     0.00000000

 Orbital energies:

         1.1          2.1          3.1          4.1          5.1          6.1          7.1          8.1          9.1         10.1
    -11.229883   -11.217251   -11.216337   -11.215822   -11.215477    -1.091012    -0.988671    -0.935433    -0.867996    -0.700108

        11.1         12.1         13.1         14.1         15.1         16.1         17.1         18.1
     -0.627536    -0.592377    -0.529503    -0.514610    -0.501842    -0.463822     0.137645     0.163165

         1.2          2.2          3.2          4.2          5.2          6.2
     -0.587601    -0.553054    -0.530322    -0.330128     0.171594     0.219945


 HOMO      4.2    -0.330128 =      -8.9832eV
 LUMO     17.1     0.137645 =       3.7455eV
 LUMO-HOMO         0.467772 =      12.7287eV


 **********************************************************************************************************************************
 DATASETS  * FILE   NREC   LENGTH (MB)   RECORD NAMES
              1      18       31.90       500      610      700      900      950      970     1001      129      960     1100   
                                          VAR    BASINP    GEOM    SYMINP    ZMAT    AOBASIS   BASIS     P2S    ABASIS      S 
                                         1400     1410     1200     1210     1080     1600     1650     1700   
                                           T        V       H0       H01     AOSYM     SMH    MOLCAS    OPER   

              2       6        6.78       700     1000      520     2100     1001     2101   
                                         GEOM     BASIS   MCVARS     RHF     BASIS     RHF  

 PROGRAMS   *        TOTAL    HF-SCF       INT   CCSD(T)    HF-SCF       INT
 CPU TIMES  *        38.06      8.20     20.01      8.07      0.41      1.26
 REAL TIME  *        43.10 SEC
 DISK USED  *       134.40 MB (local),        6.02 GB (total)
 SF USED    *        94.95 MB
 GA USED    *         0.00 MB       (max)       0.00 MB       (current)
 **********************************************************************************************************************************


 PROGRAM * CCSD (Closed-shell coupled cluster)     Authors: C. Hampel, H.-J. Werner, 1991, M. Deegan, P.J. Knowles, 1992


 Convergence thresholds:  THRVAR = 1.00D-08  THRDEN = 1.00D-06

 CCSD(T)     terms to be evaluated (factor= 1.000)


 Number of core orbitals:           5 (   5   0 )
 Number of closed-shell orbitals:  15 (  11   4 )
 Number of external orbitals:     270 ( 166 104 )

 Molecular orbitals read from record     2101.2  Type=RHF/CANONICAL (state 1.1)

 Number of N-1 electron functions:              15
 Number of N-2 electron functions:             120
 Number of singly external CSFs:              2242
 Number of doubly external CSFs:           4149739
 Total number of CSFs:                     4151982

 Length of J-op  integral file:               0.00 MB
 Length of K-op  integral file:               3.10 MB
 Length of 3-ext integral record:             0.00 MB

 Memory could be reduced to 183.96 Mwords without degradation in triples

 Integral transformation finished. Total CPU:   8.83 sec, npass=  1  Memory used:  65.38 MW

 Reference energy:                   -195.21499383

 MP2 singlet pair energy:              -0.57510607
 MP2 triplet pair energy:              -0.28701852
 MP2 correlation energy:               -0.86212459
 MP2 total energy:                   -196.07711842

 SCS-MP2 correlation energy:           -0.86871659   (PS=  1.200000  PT=  0.333333)
 SCS-MP2 total energy:               -196.08371042

 ITER.      SQ.NORM     CORR.ENERGY   TOTAL ENERGY   ENERGY CHANGE        DEN1      VAR(S)    VAR(P)  DIIS     TIME  TIME/IT
   1      1.30058085    -0.91036419  -196.12535802    -0.04823960    -0.02557206  0.30D-02  0.46D-02  1  1    15.25     6.63
   2      1.32251575    -0.91430171  -196.12929554    -0.00393752    -0.02159292  0.53D-04  0.59D-03  2  2    22.11     6.94
   3      1.32990977    -0.91443070  -196.12942453    -0.00012899    -0.00417414  0.20D-04  0.44D-04  3  3    28.96     7.05
   4      1.33230547    -0.91450168  -196.12949551    -0.00007098    -0.00087351  0.15D-05  0.48D-05  4  4    35.77     7.09
   5      1.33288740    -0.91450925  -196.12950308    -0.00000757    -0.00014231  0.18D-06  0.55D-06  5  5    42.59     7.12
   6      1.33302438    -0.91450253  -196.12949636     0.00000672    -0.00002370  0.20D-07  0.38D-07  6  6    49.38     7.15
   7      1.33304033    -0.91450229  -196.12949611     0.00000025     0.00000049  0.32D-08  0.35D-08  6  2    56.20     7.16
   8      1.33304392    -0.91450222  -196.12949605     0.00000006    -0.00000032  0.72D-09  0.34D-09  6  1    63.02     7.17

 Norm of t1 vector:      0.07378475      S-energy:     0.00000056      T1 diagnostic:  0.00952557
                                                                       D1 diagnostic:  0.02927058

 Doubles amplitudes (print threshold =  0.500E-01):

         I         J         SYM. A    SYM. B    A         B      T(IJ, AB)

        15        15         2         2         1         1     -0.07550280


 Total CPU time for triples:    238.66 sec


 RESULTS
 =======

  Reference energy                   -195.214993827648
  CCSD singlet pair energy             -0.648696086541
  CCSD triplet pair energy             -0.265806694059
  CCSD correlation energy              -0.914502220936

  Triples (T) contribution             -0.038397354626
  Total correlation energy             -0.952899575563

  CCSD total energy                  -196.129496048584
  CCSD[T] energy                     -196.168789138718
  CCSD-T energy                      -196.167503380923
 !CCSD(T) total energy               -196.167893403211

 Timing summary (sec):

 STEP                 CPU(USER)    SYS     CPU(TOT)    WALL
 Transformation          8.89      1.15     10.04     10.06
 CCSD iterations        54.15      3.16     57.31     57.44
 Triples               238.66      7.85    246.51    247.05

 Program statistics:

 Available memory in ccsd:               499999068
 Min. memory needed in ccsd:              10377632
 Max. memory used in ccsd:                14193512
 Max. memory used in cckext:              14315156 ( 8 integral passes)



 **********************************************************************************************************************************
 DATASETS  * FILE   NREC   LENGTH (MB)   RECORD NAMES
              1      19      693.33       500      610      700      900      950      970     1001      129      960     1100   
                                          VAR    BASINP    GEOM    SYMINP    ZMAT    AOBASIS   BASIS     P2S    ABASIS      S 
                                         1400     1410     1200     1210     1080     1600     1650     1700     1380   
                                           T        V       H0       H01     AOSYM     SMH    MOLCAS    OPER     JKOP   

              2       6        6.78       700     1000      520     2100     1001     2101   
                                         GEOM     BASIS   MCVARS     RHF     BASIS     RHF  

 PROGRAMS   *        TOTAL   CCSD(T)    HF-SCF       INT   CCSD(T)    HF-SCF       INT
 CPU TIMES  *       339.79    301.73      8.20     20.01      8.07      0.41      1.26
 REAL TIME  *       357.82 SEC
 DISK USED  *         1.13 GB (local),        7.64 GB (total)
 SF USED    *         1.03 GB
 GA USED    *         0.00 MB       (max)       0.00 MB       (current)
 **********************************************************************************************************************************
 SETTING BASIS          =    VQZ


 Recomputing integrals since basis changed


 Using spherical harmonics

 Library entry C      S cc-pVQZ              selected for orbital group  1
 Library entry C      P cc-pVQZ              selected for orbital group  1
 Library entry C      D cc-pVQZ              selected for orbital group  1
 Library entry C      F cc-pVQZ              selected for orbital group  1
 Library entry C      G cc-pVQZ              selected for orbital group  1
 Library entry H      S cc-pVQZ              selected for orbital group  2
 Library entry H      P cc-pVQZ              selected for orbital group  2
 Library entry H      D cc-pVQZ              selected for orbital group  2
 Library entry H      F cc-pVQZ              selected for orbital group  2


 PROGRAM * SEWARD (Integral evaluation for generally contracted gaussian basis sets)     Author: Roland Lindh, 1990

 Geometry written to block  1 of record 700


 Point group  Cs  



 ATOMIC COORDINATES

 NR  ATOM    CHARGE       X              Y              Z

   1  C       6.00    0.508139796   -3.964375179    0.000000000
   2  C       6.00    1.391535737   -1.266239336    0.000000000
   3  C       6.00    0.000000000    0.853020483    0.000000000
   4  C       6.00   -2.850134074    0.931600964    0.000000000
   5  C       6.00    1.250110523    3.418584479    0.000000000
   6  H       1.00   -1.547666799   -4.148897486    0.000000000
   7  H       1.00    1.227944036   -4.976731699    1.661475555
   8  H       1.00    1.227944036   -4.976731699   -1.661475555
   9  H       1.00    3.440348455   -1.039294566    0.000000000
  10  H       1.00   -3.553223686    1.958394992   -1.660341719
  11  H       1.00   -3.553223686    1.958394992    1.660341719
  12  H       1.00   -3.720710113   -0.937837061    0.000000000
  13  H       1.00    3.311342522    3.273043442    0.000000000
  14  H       1.00    0.684672341    4.527052470    1.661158081
  15  H       1.00    0.684672341    4.527052470   -1.661158081

 Bond lengths in Bohr (Angstrom)

 1-2  2.839071224  1-6  2.064071035  1-7  2.074484246  1-8  2.074484246  2-3  2.535277871
     ( 1.502371792)     ( 1.092259353)     ( 1.097769787)     ( 1.097769787)     ( 1.341611273)

  2- 9  2.061343611   3- 4  2.851217132   3- 5  2.853926232   4-10  2.074939903   4-11  2.074939903
       ( 1.090816063)       ( 1.508799129)       ( 1.510232724)       ( 1.098010911)       ( 1.098010911)

  4-12  2.062207838   5-13  2.066363846   5-14  2.075540362   5-15  2.075540362
       ( 1.091273392)       ( 1.093472657)       ( 1.098328660)       ( 1.098328660)

 Bond angles

  1-2-3  128.58158505   1-2-9  114.44977440   2-1-6  113.25788367   2-1-7  110.84332104

  2-1-8  110.84332104   2-3-4  124.86875498   2-3-5  120.73216424   3-2-9  116.96864055

  3- 4-10  110.63159843   3- 4-11  110.63159843   3- 4-12  113.39156980   3- 5-13  111.93949046

  3- 5-14  111.14734907   3- 5-15  111.14734907   4- 3- 5  114.39908078   6- 1- 7  107.57562441

  6- 1- 8  107.57562441   7- 1- 8  106.43421285  10- 4-11  106.29609064  10- 4-12  107.79124809

 11- 4-12  107.79124809  13- 5-14  108.02118537  13- 5-15  108.02118537  14- 5-15  106.32701613

 NUCLEAR CHARGE:                   40
 NUMBER OF PRIMITIVE AOS:         785
 NUMBER OF SYMMETRY AOS:          660
 NUMBER OF CONTRACTIONS:          575   (  345A'  +  230A"  )
 NUMBER OF CORE ORBITALS:           5   (    5A'  +    0A"  )
 NUMBER OF VALENCE ORBITALS:       30   (   22A'  +    8A"  )


 NUCLEAR REPULSION ENERGY  174.01504123


 Eigenvalues of metric

         1 0.379E-04 0.592E-04 0.681E-04 0.909E-04 0.104E-03 0.110E-03 0.153E-03 0.171E-03
         2 0.219E-03 0.249E-03 0.291E-03 0.130E-02 0.147E-02 0.164E-02 0.189E-02 0.227E-02


 Contracted 2-electron integrals neglected if value below      1.0D-12
 AO integral compression algorithm  1   Integral accuracy      1.0D-12

     19471.008 MB (compressed) written to integral file ( 34.6%)

     Node minimum: 9720.300 MB, node maximum: 9750.708 MB


 NUMBER OF SORTED TWO-ELECTRON INTEGRALS: 3445208122.     BUFFER LENGTH:  32768
 NUMBER OF SEGMENTS: 108  SEGMENT LENGTH:   31999524      RECORD LENGTH: 262144

 Memory used in sort:      32.29 MW

 SORT1 READ  7026247748. AND WROTE  2411909206. INTEGRALS IN  13858 RECORDS. CPU TIME:   107.90 SEC, REAL TIME:   125.97 SEC
 SORT2 READ  4822961392. AND WROTE  6890638425. INTEGRALS IN  74160 RECORDS. CPU TIME:    42.62 SEC, REAL TIME:    52.13 SEC

 Node minimum:  3445208122.  Node maximum:  3445430303. integrals

 OPERATOR DM      FOR CENTER  0  COORDINATES:    0.000000    0.000000    0.000000


 **********************************************************************************************************************************
 DATASETS  * FILE   NREC   LENGTH (MB)   RECORD NAMES
              1      18       36.53       500      610      700      900      950      970     1002      129      960     1100   
                                          VAR    BASINP    GEOM    SYMINP    ZMAT    AOBASIS   BASIS     P2S    ABASIS      S 
                                         1400     1410     1200     1210     1080     1600     1650     1700   
                                           T        V       H0       H01     AOSYM     SMH    MOLCAS    OPER   

              2       7        7.79       700     1000      520     2100     1001     2101     1002   
                                         GEOM     BASIS   MCVARS     RHF     BASIS     RHF     BASIS   

 PROGRAMS   *        TOTAL       INT   CCSD(T)    HF-SCF       INT   CCSD(T)    HF-SCF       INT
 CPU TIMES  *       606.80    267.01    301.73      8.20     20.01      8.07      0.41      1.26
 REAL TIME  *       658.79 SEC
 DISK USED  *         1.13 GB (local),       79.57 GB (total)
 SF USED    *         1.03 GB
 GA USED    *         0.00 MB       (max)       0.00 MB       (current)
 **********************************************************************************************************************************


 PROGRAM * RHF-SCF (CLOSED SHELL)       Authors: W. Meyer, H.-J. Werner


 NUMBER OF ELECTRONS:      20+   20-
 CONVERGENCE THRESHOLDS:    1.00E-05 (Density)    1.00E-07 (Energy)
 MAX. NUMBER OF ITERATIONS:       60
 INTERPOLATION TYPE:            DIIS
 INTERPOLATION STEPS:              2 (START)      1 (STEP)
 LEVEL SHIFTS:                  0.00 (CLOSED)  0.00 (OPEN) 



 Molecular orbitals read from record     2101.2  Type=RHF/CANONICAL (state 1.1)

 Present basis size:      345  230
 Previous basis size:     182  108
 Previous occupation:      16    4
 Previous closed-shells:   16    4
 Previous core-orbitals:    5    0
 Present occupation:       16    4
 Present closed-shells:    16    4
 Present core-orbitals:     5    0
 Wavefunction symmetry:    1   Singlet 

 Orbital overlap <old|new>:  < 1.1| 1.1> = 0.999999   < 2.1| 2.1> = 0.999999   < 3.1| 3.1> = 0.999999   < 4.1| 4.1> = 0.999999
                             < 5.1| 5.1> = 0.999999   < 6.1| 6.1> = 0.999994   < 7.1| 7.1> = 0.999996   < 8.1| 8.1> = 0.999996
                             < 9.1| 9.1> = 0.999994   <10.1|10.1> = 0.999991   <11.1|11.1> = 0.999988   <12.1|12.1> = 0.999987
                             <13.1|13.1> = 0.999988   <14.1|14.1> = 0.999988   <15.1|15.1> = 0.999983   <16.1|16.1> = 0.999985
                             < 1.2| 1.2> = 0.999986   < 2.2| 2.2> = 0.999988   < 3.2| 3.2> = 0.999987   < 4.2| 4.2> = 0.999962


 Molecular orbital dump at record        2102.2

 ITERATION    DDIFF          GRAD             ENERGY        2-EL.EN.            DIPOLE MOMENTS         DIIS   ORB.
    1      0.000D+00      0.000D+00      -195.22513121    474.823353   -0.07862    0.02596    0.00000    0    start
    2      0.000D+00      0.122D-02      -195.22742043    474.866523   -0.07970    0.02459    0.00000    1    diag
    3      0.282D-02      0.678D-04      -195.22743966    474.835151   -0.08104    0.02507    0.00000    2    diag
    4      0.311D-03      0.825D-05      -195.22744047    474.850680   -0.08100    0.02493    0.00000    3    diag
    5      0.396D-04      0.312D-05      -195.22744058    474.844300   -0.08132    0.02524    0.00000    4    diag
    6      0.641D-05      0.108D-05      -195.22744060    474.844963   -0.08128    0.02522    0.00000    5    diag
    7      0.250D-05      0.338D-06      -195.22744060    474.845169   -0.08135    0.02531    0.00000    0    orth

 Final occupancy:  16   4

 !RHF STATE  1.1 Energy              -195.227440597867
 Nuclear energy                       174.01504123
 One-electron energy                 -606.66506644
 Two-electron energy                  237.42258461
 Virial quotient                       -1.00145362
 !RHF STATE  1.1 Dipole moment         -0.08134897     0.02530585     0.00000000
 Dipole moment /Debye                  -0.20675492     0.06431684     0.00000000

 Orbital energies:

         1.1          2.1          3.1          4.1          5.1          6.1          7.1          8.1          9.1         10.1
    -11.229309   -11.216495   -11.215710   -11.215054   -11.214997    -1.091117    -0.988741    -0.935470    -0.868178    -0.700379

        11.1         12.1         13.1         14.1         15.1         16.1         17.1         18.1
     -0.627904    -0.592745    -0.529825    -0.514948    -0.502294    -0.464212     0.110051     0.132906

         1.2          2.2          3.2          4.2          5.2          6.2
     -0.587948    -0.553455    -0.530616    -0.330554     0.158904     0.191037


 HOMO      4.2    -0.330554 =      -8.9948eV
 LUMO     17.1     0.110051 =       2.9946eV
 LUMO-HOMO         0.440605 =      11.9895eV


 **********************************************************************************************************************************
 DATASETS  * FILE   NREC   LENGTH (MB)   RECORD NAMES
              1      18       36.59       500      610      700      900      950      970     1002      129      960     1100   
                                          VAR    BASINP    GEOM    SYMINP    ZMAT    AOBASIS   BASIS     P2S    ABASIS      S 
                                         1400     1410     1200     1210     1080     1600     1650     1700   
                                           T        V       H0       H01     AOSYM     SMH    MOLCAS    OPER   

              2       8       13.73       700     1000      520     2100     1001     2101     1002     2102   
                                         GEOM     BASIS   MCVARS     RHF     BASIS     RHF     BASIS     RHF  

 PROGRAMS   *        TOTAL    HF-SCF       INT   CCSD(T)    HF-SCF       INT   CCSD(T)    HF-SCF       INT
 CPU TIMES  *       735.59    128.79    267.01    301.73      8.20     20.01      8.07      0.41      1.26
 REAL TIME  *       798.97 SEC
 DISK USED  *         1.13 GB (local),       79.57 GB (total)
 SF USED    *         1.03 GB
 GA USED    *         0.00 MB       (max)       0.00 MB       (current)
 **********************************************************************************************************************************
 Molecular orbitals read from record     2102.2  Type=RHF/CANONICAL (state 1.1)
 Occupation numbers read from record     2102.2  Type=RHF/RHF (state 1.1)
 Orbital energies read from record       2102.2  Type=RHF/CANONICAL (state 1.1)
 Redundancy group numbers read from rec  2102.2  Type=RHF/RHF (state 1.1)

 HF/cc-pVQZ energy=   -195.227440597867

          HF-SCF         CCSD(T)          HF-SCF         CCSD(T)          HF-SCF
   -195.22744060   -196.16789340   -195.21499383   -195.95961086   -195.16118841
 **********************************************************************************************************************************
 Molpro calculation terminated
