
 Primary working directories    : /home/tmp/molpro/molpro.MOOh4eSH69
 Secondary working directories  : /home/tmp/molpro/molpro.MOOh4eSH69
 Wavefunction directory         : /root/wfu/
 Main file repository           : /home/tmp/molpro/molpro.MOOh4eSH69/

 id        : scuxyl

 Nodes                nprocs
 localhost.localdomain    8

 Using customized tuning parameters: mindgm=1; mindgv=20; mindgc=4; mindgr=1; noblas=0; minvec=7
 default implementation of scratch files=sf  


 Variables initialized (934), CPU time= 0.00 sec
 ***,cis-C=CC(=C)C
 
 memory,500,m
 geometry={
 C        2.033980       -0.103006       -0.186388
 C        0.851177       -0.560980        0.237716
 C       -0.454209        0.109385        0.057784
 C       -0.585082        1.443714        0.088958
 C       -1.640585       -0.805623       -0.139708
 H        2.952314       -0.651378       -0.001036
 H        2.120914        0.828266       -0.738902
 H        0.817379       -1.529703        0.738595
 H        0.261990        2.094188        0.282175
 H       -1.547717        1.922160       -0.065275
 H       -2.571963       -0.242841       -0.240002
 H       -1.748346       -1.493687        0.708558
 H       -1.516250       -1.427939       -1.034289
 }
 
 basis=vdz
 {hf;wf,38,spin,0,state,1}
 ccsd(t)
 
 basis=vtz
 hf
 ccsd(t)
 
 basis=vqz
 hf
 Commands  initialized (763), CPU time= 0.01 sec, 617 directives.
 Default parameters read. Elapsed time= 0.05 sec

 Checking input...
 Passed
1


                                         ***  PROGRAM SYSTEM MOLPRO  ***
                                       Copyright, TTI GmbH Stuttgart, 2015
                                    Version 2019.2 linked Jun  8 2019 11:26:33


 **********************************************************************************************************************************
 LABEL *   cis-C=CC(=C)C                                                                 
  64 bit mpp version                                                                     DATE: 10-Nov-22          TIME: 14:51:56  
 **********************************************************************************************************************************

 SHA1:             8135a10abc80eafa5b3ae28ffc55be4890dc4c84
 **********************************************************************************************************************************

Geometry recognized as XYZ


 Variable memory set to  500000000 words,  buffer space 

 SETTING BASIS          =    VDZ


 Recomputing integrals since basis changed


 Using spherical harmonics

 Library entry C      S cc-pVDZ              selected for orbital group  1
 Library entry C      P cc-pVDZ              selected for orbital group  1
 Library entry C      D cc-pVDZ              selected for orbital group  1
 Library entry H      S cc-pVDZ              selected for orbital group  2
 Library entry H      P cc-pVDZ              selected for orbital group  2


 PROGRAM * SEWARD (Integral evaluation for generally contracted gaussian basis sets)     Author: Roland Lindh, 1990

 Geometry written to block  1 of record 700


 Point group  C1  



 ATOMIC COORDINATES

 NR  ATOM    CHARGE       X              Y              Z

   1  C       6.00    3.843665143   -0.194653129   -0.352222273
   2  C       6.00    1.608491414   -1.060098561    0.449218135
   3  C       6.00   -0.858330613    0.206707692    0.109195934
   4  C       6.00   -1.105644740    2.728224062    0.168106257
   5  C       6.00   -3.100256334   -1.522406830   -0.264009857
   6  H       1.00    5.579064894   -1.230926024   -0.001957756
   7  H       1.00    4.007946594    1.565195898   -1.396322413
   8  H       1.00    1.544622450   -2.890719722    1.395742267
   9  H       1.00    0.495089347    3.957441773    0.533233469
  10  H       1.00   -2.924761248    3.632355968   -0.123351873
  11  H       1.00   -4.860305673   -0.458902982   -0.453538049
  12  H       1.00   -3.303895111   -2.822659346    1.338980563
  13  H       1.00   -2.865297236   -2.698413633   -1.954522944

 Bond lengths in Bohr (Angstrom)

 1-2  2.527311640  1-6  2.051379789  1-7  2.052852186  2-3  2.793854702  2-8  2.061834380
     ( 1.337395725)     ( 1.085543435)     ( 1.086322594)     ( 1.478444239)     ( 1.091075766)

  3- 4  2.534300595   3- 5  2.855757435   4- 9  2.051010405   4-10  2.052215197   5-11  2.065123494
       ( 1.341094121)       ( 1.511201755)       ( 1.085347966)       ( 1.085985514)       ( 1.092816291)

  5-12  2.074054880   5-13  2.072687211
       ( 1.097542577)       ( 1.096818837)

 Bond angles

  1-2-3  125.94584925   1-2-8  118.49021635   2-1-6  121.40264408   2-1-7  121.71018160

  2-3-4  122.30820780   2-3-5  115.75497871   3-2-8  115.53729475   3-4-9  121.61946602

  3- 4-10  121.43578386   3- 5-11  111.67004056   3- 5-12  110.83400180   3- 5-13  111.16999565

  4- 3- 5  121.92820637   6- 1- 7  116.88500884   9- 4-10  116.93994585  11- 5-12  108.06535815

 11- 5-13  108.29757897  12- 5-13  106.60668919

 NUCLEAR CHARGE:                   38
 NUMBER OF PRIMITIVE AOS:         191
 NUMBER OF SYMMETRY AOS:          186
 NUMBER OF CONTRACTIONS:          110   (  110A   )
 NUMBER OF CORE ORBITALS:           5   (    5A   )
 NUMBER OF VALENCE ORBITALS:       28   (   28A   )


 NUCLEAR REPULSION ENERGY  159.38304447


 Eigenvalues of metric

         1 0.177E-02 0.194E-02 0.307E-02 0.332E-02 0.140E-01 0.162E-01 0.188E-01 0.190E-01


 Contracted 2-electron integrals neglected if value below      1.0D-11
 AO integral compression algorithm  1   Integral accuracy      1.0D-11

     81.789 MB (compressed) written to integral file ( 51.1%)

     Node minimum: 9.437 MB, node maximum: 11.534 MB


 NUMBER OF SORTED TWO-ELECTRON INTEGRALS:    2331728.     BUFFER LENGTH:  32768
 NUMBER OF SEGMENTS:   1  SEGMENT LENGTH:    2331728      RECORD LENGTH: 524288

 Memory used in sort:       2.89 MW

 SORT1 READ    19992950. AND WROTE     2242255. INTEGRALS IN      7 RECORDS. CPU TIME:     0.29 SEC, REAL TIME:     0.32 SEC
 SORT2 READ    17824309. AND WROTE    18638565. INTEGRALS IN    296 RECORDS. CPU TIME:     0.07 SEC, REAL TIME:     0.09 SEC

 Node minimum:     2327150.  Node maximum:     2332492. integrals

 OPERATOR DM      FOR CENTER  0  COORDINATES:    0.000000    0.000000    0.000000


 **********************************************************************************************************************************
 DATASETS  * FILE   NREC   LENGTH (MB)   RECORD NAMES
              1      18       30.62       500      610      700      900      950      970     1000      129      960     1100   
                                          VAR    BASINP    GEOM    SYMINP    ZMAT    AOBASIS   BASIS     P2S    ABASIS      S 
                                         1400     1410     1200     1210     1080     1600     1650     1700   
                                           T        V       H0       H01     AOSYM     SMH    MOLCAS    OPER   

 PROGRAMS   *        TOTAL       INT
 CPU TIMES  *         0.83      0.73
 REAL TIME  *         1.17 SEC
 DISK USED  *        31.13 MB (local),      557.34 MB (total)
 GA USED    *         0.00 MB       (max)       0.00 MB       (current)
 **********************************************************************************************************************************


 PROGRAM * RHF-SCF (CLOSED SHELL)       Authors: W. Meyer, H.-J. Werner


 NUMBER OF ELECTRONS:      19+   19-    SPACE SYMMETRY=1    SPIN SYMMETRY: Singlet 
 CONVERGENCE THRESHOLDS:    1.00E-05 (Density)    1.00E-07 (Energy)
 MAX. NUMBER OF ITERATIONS:       60
 INTERPOLATION TYPE:            DIIS
 INTERPOLATION STEPS:              2 (START)      1 (STEP)
 LEVEL SHIFTS:                  0.00 (CLOSED)  0.00 (OPEN) 



 Orbital guess generated from atomic densities. Full valence occupancy:   33

 Molecular orbital dump at record        2100.2

 Initial occupancy:  19

 ITERATION    DDIFF          GRAD             ENERGY        2-EL.EN.            DIPOLE MOMENTS         DIIS   ORB.
    1      0.000D+00      0.000D+00      -193.91107533    447.358357   -0.11798   -0.37137   -0.00838    0    start
    2      0.000D+00      0.442D-02      -193.96425007    444.043215   -0.07342   -0.11118   -0.01829    1    diag
    3      0.964D-02      0.146D-02      -193.96944575    445.374892   -0.05590   -0.17649   -0.00714    2    diag
    4      0.340D-02      0.454D-03      -193.97014213    445.065581   -0.05404   -0.13563   -0.01240    3    diag
    5      0.123D-02      0.650D-04      -193.97015591    445.061756   -0.05265   -0.13979   -0.01212    4    diag
    6      0.184D-03      0.232D-04      -193.97015761    445.072372   -0.05298   -0.13598   -0.01226    5    diag
    7      0.583D-04      0.697D-05      -193.97015778    445.069365   -0.05326   -0.13616   -0.01230    6    diag
    8      0.165D-04      0.241D-05      -193.97015781    445.070444   -0.05325   -0.13580   -0.01234    7    diag
    9      0.611D-05      0.105D-05      -193.97015782    445.070113   -0.05335   -0.13580   -0.01230    0    orth

 Final occupancy:  19

 !RHF STATE  1.1 Energy              -193.970157816273
 Nuclear energy                       159.38304447
 One-electron energy                 -575.88825883
 Two-electron energy                  222.53505654
 Virial quotient                       -1.00157116
 !RHF STATE  1.1 Dipole moment         -0.05335404    -0.13579893    -0.01230030
 Dipole moment /Debye                  -0.13560357    -0.34514385    -0.03126219

 Orbital energies:

         1.1          2.1          3.1          4.1          5.1          6.1          7.1          8.1          9.1         10.1
    -11.245478   -11.240301   -11.233563   -11.230439   -11.223865    -1.103262    -1.006806    -0.931803    -0.822452    -0.707635

        11.1         12.1         13.1         14.1         15.1         16.1         17.1         18.1         19.1         20.1
     -0.645869    -0.617076    -0.579734    -0.565061    -0.535586    -0.507871    -0.481925    -0.407628    -0.322717     0.126185

        21.1
      0.191208


 HOMO     19.1    -0.322717 =      -8.7816eV
 LUMO     20.1     0.126185 =       3.4337eV
 LUMO-HOMO         0.448902 =      12.2152eV


 **********************************************************************************************************************************
 DATASETS  * FILE   NREC   LENGTH (MB)   RECORD NAMES
              1      18       30.62       500      610      700      900      950      970     1000      129      960     1100   
                                          VAR    BASINP    GEOM    SYMINP    ZMAT    AOBASIS   BASIS     P2S    ABASIS      S 
                                         1400     1410     1200     1210     1080     1600     1650     1700   
                                           T        V       H0       H01     AOSYM     SMH    MOLCAS    OPER   

              2       4        3.21       700     1000      520     2100   
                                         GEOM     BASIS   MCVARS     RHF  

 PROGRAMS   *        TOTAL    HF-SCF       INT
 CPU TIMES  *         1.07      0.23      0.73
 REAL TIME  *         1.47 SEC
 DISK USED  *        34.67 MB (local),      585.69 MB (total)
 SF USED    *         0.05 MB
 GA USED    *         0.00 MB       (max)       0.00 MB       (current)
 **********************************************************************************************************************************


 PROGRAM * CCSD (Closed-shell coupled cluster)     Authors: C. Hampel, H.-J. Werner, 1991, M. Deegan, P.J. Knowles, 1992


 Convergence thresholds:  THRVAR = 1.00D-08  THRDEN = 1.00D-06

 CCSD(T)     terms to be evaluated (factor= 1.000)


 Number of core orbitals:           5 (   5 )
 Number of closed-shell orbitals:  14 (  14 )
 Number of external orbitals:      91 (  91 )

 Molecular orbitals read from record     2100.2  Type=RHF/CANONICAL (state 1.1)

 Number of N-1 electron functions:              14
 Number of N-2 electron functions:             105
 Number of singly external CSFs:              1274
 Number of doubly external CSFs:            812175
 Total number of CSFs:                      813450

 Length of J-op  integral file:               0.00 MB
 Length of K-op  integral file:               0.84 MB
 Length of 3-ext integral record:             0.00 MB

 Memory could be reduced to 14.62 Mwords without degradation in triples

 Integral transformation finished. Total CPU:   0.79 sec, npass=  1  Memory used:  12.45 MW

 Reference energy:                   -193.97015782

 MP2 singlet pair energy:              -0.43877932
 MP2 triplet pair energy:              -0.24124783
 MP2 correlation energy:               -0.68002716
 MP2 total energy:                   -194.65018497

 SCS-MP2 correlation energy:           -0.67664495   (PS=  1.200000  PT=  0.333333)
 SCS-MP2 total energy:               -194.64680277

 ITER.      SQ.NORM     CORR.ENERGY   TOTAL ENERGY   ENERGY CHANGE        DEN1      VAR(S)    VAR(P)  DIIS     TIME  TIME/IT
   1      1.27784366    -0.73245901  -194.70261683    -0.05243186    -0.03167949  0.27D-02  0.49D-02  1  1     1.10     0.34
   2      1.30421454    -0.73792295  -194.70808076    -0.00546393    -0.02193289  0.64D-04  0.67D-03  2  2     1.47     0.38
   3      1.31231608    -0.73829452  -194.70845234    -0.00037157    -0.00351915  0.19D-04  0.72D-04  3  3     1.82     0.38
   4      1.31604780    -0.73842315  -194.70858097    -0.00012863    -0.00105729  0.12D-05  0.77D-05  4  4     2.18     0.39
   5      1.31698052    -0.73842968  -194.70858749    -0.00000652    -0.00018372  0.15D-06  0.87D-06  5  5     2.53     0.39
   6      1.31717354    -0.73842315  -194.70858096     0.00000653    -0.00002695  0.21D-07  0.89D-07  6  6     2.88     0.39
   7      1.31719971    -0.73842421  -194.70858203    -0.00000107     0.00000185  0.72D-08  0.15D-07  6  2     3.23     0.40
   8      1.31720723    -0.73842407  -194.70858188     0.00000015    -0.00000076  0.20D-08  0.23D-08  6  1     3.59     0.40
   9      1.31720590    -0.73842418  -194.70858199    -0.00000011     0.00000126  0.35D-09  0.39D-09  6  4     3.94     0.40

 Norm of t1 vector:      0.07417947      S-energy:    -0.00000044      T1 diagnostic:  0.00991265
                                                                       D1 diagnostic:  0.03057160

 Doubles amplitudes (print threshold =  0.500E-01):

         I         J         SYM. A    SYM. B    A         B      T(IJ, AB)

        13        13         1         1         1         1     -0.06191536
        14        14         1         1         1         1     -0.09470043


 Total CPU time for triples:      3.56 sec


 RESULTS
 =======

  Reference energy                   -193.970157816271
  CCSD singlet pair energy             -0.518478561497
  CCSD triplet pair energy             -0.219945179638
  CCSD correlation energy              -0.738424178463

  Triples (T) contribution             -0.026858003973
  Total correlation energy             -0.765282182435

  CCSD total energy                  -194.708581994734
  CCSD[T] energy                     -194.736091472790
  CCSD-T energy                      -194.735164379207
 !CCSD(T) total energy               -194.735439998707

 Timing summary (sec):

 STEP                 CPU(USER)    SYS     CPU(TOT)    WALL
 Transformation          0.79      0.12      0.91      0.92
 CCSD iterations         3.15      0.43      3.58      3.60
 Triples                 3.56      0.15      3.71      3.71

 Program statistics:

 Available memory in ccsd:               499999197
 Min. memory needed in ccsd:               2199982
 Max. memory used in ccsd:                 2899821
 Max. memory used in cckext:               2719384 ( 9 integral passes)



 **********************************************************************************************************************************
 DATASETS  * FILE   NREC   LENGTH (MB)   RECORD NAMES
              1      19       88.87       500      610      700      900      950      970     1000      129      960     1100   
                                          VAR    BASINP    GEOM    SYMINP    ZMAT    AOBASIS   BASIS     P2S    ABASIS      S 
                                         1400     1410     1200     1210     1080     1600     1650     1700     1380   
                                           T        V       H0       H01     AOSYM     SMH    MOLCAS    OPER     JKOP   

              2       4        3.21       700     1000      520     2100   
                                         GEOM     BASIS   MCVARS     RHF  

 PROGRAMS   *        TOTAL   CCSD(T)    HF-SCF       INT
 CPU TIMES  *         8.61      7.53      0.23      0.73
 REAL TIME  *         9.76 SEC
 DISK USED  *       175.73 MB (local),        1.13 GB (total)
 SF USED    *       134.24 MB
 GA USED    *         0.00 MB       (max)       0.00 MB       (current)
 **********************************************************************************************************************************
 SETTING BASIS          =    VTZ


 Recomputing integrals since basis changed


 Using spherical harmonics

 Library entry C      S cc-pVTZ              selected for orbital group  1
 Library entry C      P cc-pVTZ              selected for orbital group  1
 Library entry C      D cc-pVTZ              selected for orbital group  1
 Library entry C      F cc-pVTZ              selected for orbital group  1
 Library entry H      S cc-pVTZ              selected for orbital group  2
 Library entry H      P cc-pVTZ              selected for orbital group  2
 Library entry H      D cc-pVTZ              selected for orbital group  2


 PROGRAM * SEWARD (Integral evaluation for generally contracted gaussian basis sets)     Author: Roland Lindh, 1990

 Geometry written to block  1 of record 700


 Point group  C1  



 ATOMIC COORDINATES

 NR  ATOM    CHARGE       X              Y              Z

   1  C       6.00    3.843665143   -0.194653129   -0.352222273
   2  C       6.00    1.608491414   -1.060098561    0.449218135
   3  C       6.00   -0.858330613    0.206707692    0.109195934
   4  C       6.00   -1.105644740    2.728224062    0.168106257
   5  C       6.00   -3.100256334   -1.522406830   -0.264009857
   6  H       1.00    5.579064894   -1.230926024   -0.001957756
   7  H       1.00    4.007946594    1.565195898   -1.396322413
   8  H       1.00    1.544622450   -2.890719722    1.395742267
   9  H       1.00    0.495089347    3.957441773    0.533233469
  10  H       1.00   -2.924761248    3.632355968   -0.123351873
  11  H       1.00   -4.860305673   -0.458902982   -0.453538049
  12  H       1.00   -3.303895111   -2.822659346    1.338980563
  13  H       1.00   -2.865297236   -2.698413633   -1.954522944

 Bond lengths in Bohr (Angstrom)

 1-2  2.527311640  1-6  2.051379789  1-7  2.052852186  2-3  2.793854702  2-8  2.061834380
     ( 1.337395725)     ( 1.085543435)     ( 1.086322594)     ( 1.478444239)     ( 1.091075766)

  3- 4  2.534300595   3- 5  2.855757435   4- 9  2.051010405   4-10  2.052215197   5-11  2.065123494
       ( 1.341094121)       ( 1.511201755)       ( 1.085347966)       ( 1.085985514)       ( 1.092816291)

  5-12  2.074054880   5-13  2.072687211
       ( 1.097542577)       ( 1.096818837)

 Bond angles

  1-2-3  125.94584925   1-2-8  118.49021635   2-1-6  121.40264408   2-1-7  121.71018160

  2-3-4  122.30820780   2-3-5  115.75497871   3-2-8  115.53729475   3-4-9  121.61946602

  3- 4-10  121.43578386   3- 5-11  111.67004056   3- 5-12  110.83400180   3- 5-13  111.16999565

  4- 3- 5  121.92820637   6- 1- 7  116.88500884   9- 4-10  116.93994585  11- 5-12  108.06535815

 11- 5-13  108.29757897  12- 5-13  106.60668919

 NUCLEAR CHARGE:                   38
 NUMBER OF PRIMITIVE AOS:         371
 NUMBER OF SYMMETRY AOS:          338
 NUMBER OF CONTRACTIONS:          262   (  262A   )
 NUMBER OF CORE ORBITALS:           5   (    5A   )
 NUMBER OF VALENCE ORBITALS:       28   (   28A   )


 NUCLEAR REPULSION ENERGY  159.38304447


 Eigenvalues of metric

         1 0.297E-03 0.387E-03 0.576E-03 0.708E-03 0.950E-03 0.114E-02 0.123E-02 0.135E-02


 Contracted 2-electron integrals neglected if value below      1.0D-11
 AO integral compression algorithm  1   Integral accuracy      1.0D-11

     1992.819 MB (compressed) written to integral file ( 40.4%)

     Node minimum: 237.502 MB, node maximum: 263.717 MB


 NUMBER OF SORTED TWO-ELECTRON INTEGRALS:   74183768.     BUFFER LENGTH:  32768
 NUMBER OF SEGMENTS:   5  SEGMENT LENGTH:   15996384      RECORD LENGTH: 524288

 Memory used in sort:      16.55 MW

 SORT1 READ   616022411. AND WROTE    62692350. INTEGRALS IN    181 RECORDS. CPU TIME:     7.07 SEC, REAL TIME:     7.71 SEC
 SORT2 READ   498767436. AND WROTE   593521831. INTEGRALS IN   7768 RECORDS. CPU TIME:     0.77 SEC, REAL TIME:     1.11 SEC

 Node minimum:    74175156.  Node maximum:    74205303. integrals

 OPERATOR DM      FOR CENTER  0  COORDINATES:    0.000000    0.000000    0.000000


 **********************************************************************************************************************************
 DATASETS  * FILE   NREC   LENGTH (MB)   RECORD NAMES
              1      18       32.71       500      610      700      900      950      970     1001      129      960     1100   
                                          VAR    BASINP    GEOM    SYMINP    ZMAT    AOBASIS   BASIS     P2S    ABASIS      S 
                                         1400     1410     1200     1210     1080     1600     1650     1700   
                                           T        V       H0       H01     AOSYM     SMH    MOLCAS    OPER   

              2       5        3.50       700     1000      520     2100     1001   
                                         GEOM     BASIS   MCVARS     RHF     BASIS   

 PROGRAMS   *        TOTAL       INT   CCSD(T)    HF-SCF       INT
 CPU TIMES  *        19.21     10.58      7.53      0.23      0.73
 REAL TIME  *        21.61 SEC
 DISK USED  *       175.73 MB (local),        8.76 GB (total)
 SF USED    *       134.24 MB
 GA USED    *         0.00 MB       (max)       0.00 MB       (current)
 **********************************************************************************************************************************


 PROGRAM * RHF-SCF (CLOSED SHELL)       Authors: W. Meyer, H.-J. Werner


 NUMBER OF ELECTRONS:      19+   19-    SPACE SYMMETRY=1    SPIN SYMMETRY: Singlet 
 CONVERGENCE THRESHOLDS:    1.00E-05 (Density)    1.00E-07 (Energy)
 MAX. NUMBER OF ITERATIONS:       60
 INTERPOLATION TYPE:            DIIS
 INTERPOLATION STEPS:              2 (START)      1 (STEP)
 LEVEL SHIFTS:                  0.00 (CLOSED)  0.00 (OPEN) 



 Molecular orbitals read from record     2100.2  Type=RHF/CANONICAL (state 1.1)

 Present basis size:      262
 Previous basis size:     110
 Previous occupation:      19
 Previous closed-shells:   19
 Previous core-orbitals:    5
 Present occupation:       19
 Present closed-shells:    19
 Present core-orbitals:     5
 Wavefunction symmetry:    1   Singlet 

 Orbital overlap <old|new>:  < 1.1| 1.1> = 0.999999   < 2.1| 2.1> = 0.999999   < 3.1| 3.1> = 0.999999   < 4.1| 4.1> = 0.999999
                             < 5.1| 5.1> = 0.999999   < 6.1| 6.1> = 0.999918   < 7.1| 7.1> = 0.999927   < 8.1| 8.1> = 0.999945
                             < 9.1| 9.1> = 0.999944   <10.1|10.1> = 0.999936   <11.1|11.1> = 0.999929   <12.1|12.1> = 0.999903
                             <13.1|13.1> = 0.999910   <14.1|14.1> = 0.999921   <15.1|15.1> = 0.999916   <16.1|16.1> = 0.999893
                             <17.1|17.1> = 0.999888   <18.1|18.1> = 0.999791   <19.1|19.1> = 0.999754


 Molecular orbital dump at record        2101.2

 ITERATION    DDIFF          GRAD             ENERGY        2-EL.EN.            DIPOLE MOMENTS         DIIS   ORB.
    1      0.000D+00      0.000D+00      -194.00119136    445.091143   -0.05270   -0.13151   -0.01392    0    start
    2      0.000D+00      0.324D-02      -194.02256353    445.327886   -0.05632   -0.12368   -0.01263    1    diag
    3      0.716D-02      0.289D-03      -194.02283977    445.145470   -0.06111   -0.13332   -0.01116    2    diag
    4      0.917D-03      0.394D-04      -194.02284832    445.220274   -0.06048   -0.13188   -0.01123    3    diag
    5      0.867D-04      0.146D-04      -194.02284981    445.194350   -0.06152   -0.13473   -0.01095    4    diag
    6      0.255D-04      0.520D-05      -194.02284998    445.195754   -0.06127   -0.13440   -0.01107    5    diag
    7      0.737D-05      0.153D-05      -194.02285002    445.196130   -0.06136   -0.13496   -0.01099    6    diag
    8      0.381D-05      0.512D-06      -194.02285002    445.196241   -0.06132   -0.13497   -0.01103    0    orth

 Final occupancy:  19

 !RHF STATE  1.1 Energy              -194.022850022889
 Nuclear energy                       159.38304447
 One-electron energy                 -576.00401523
 Two-electron energy                  222.59812073
 Virial quotient                       -1.00176517
 !RHF STATE  1.1 Dipole moment         -0.06131991    -0.13497119    -0.01102597
 Dipole moment /Debye                  -0.15584947    -0.34304007    -0.02802340

 Orbital energies:

         1.1          2.1          3.1          4.1          5.1          6.1          7.1          8.1          9.1         10.1
    -11.243666   -11.236378   -11.226999   -11.224094   -11.217135    -1.103240    -1.006752    -0.931913    -0.823321    -0.709143

        11.1         12.1         13.1         14.1         15.1         16.1         17.1         18.1         19.1         20.1
     -0.647742    -0.619202    -0.581664    -0.566842    -0.537372    -0.510022    -0.484278    -0.409350    -0.324776     0.115319

        21.1
      0.146790


 HOMO     19.1    -0.324776 =      -8.8376eV
 LUMO     20.1     0.115319 =       3.1380eV
 LUMO-HOMO         0.440095 =      11.9756eV


 **********************************************************************************************************************************
 DATASETS  * FILE   NREC   LENGTH (MB)   RECORD NAMES
              1      18       32.71       500      610      700      900      950      970     1001      129      960     1100   
                                          VAR    BASINP    GEOM    SYMINP    ZMAT    AOBASIS   BASIS     P2S    ABASIS      S 
                                         1400     1410     1200     1210     1080     1600     1650     1700   
                                           T        V       H0       H01     AOSYM     SMH    MOLCAS    OPER   

              2       6        7.37       700     1000      520     2100     1001     2101   
                                         GEOM     BASIS   MCVARS     RHF     BASIS     RHF  

 PROGRAMS   *        TOTAL    HF-SCF       INT   CCSD(T)    HF-SCF       INT
 CPU TIMES  *        23.38      4.18     10.58      7.53      0.23      0.73
 REAL TIME  *        26.16 SEC
 DISK USED  *       175.73 MB (local),        8.76 GB (total)
 SF USED    *       134.24 MB
 GA USED    *         0.00 MB       (max)       0.00 MB       (current)
 **********************************************************************************************************************************


 PROGRAM * CCSD (Closed-shell coupled cluster)     Authors: C. Hampel, H.-J. Werner, 1991, M. Deegan, P.J. Knowles, 1992


 Convergence thresholds:  THRVAR = 1.00D-08  THRDEN = 1.00D-06

 CCSD(T)     terms to be evaluated (factor= 1.000)


 Number of core orbitals:           5 (   5 )
 Number of closed-shell orbitals:  14 (  14 )
 Number of external orbitals:     243 ( 243 )

 Molecular orbitals read from record     2101.2  Type=RHF/CANONICAL (state 1.1)

 Number of N-1 electron functions:              14
 Number of N-2 electron functions:             105
 Number of singly external CSFs:              3402
 Number of doubly external CSFs:           5788503
 Total number of CSFs:                     5791906

 Length of J-op  integral file:               0.00 MB
 Length of K-op  integral file:               4.73 MB
 Length of 3-ext integral record:             0.00 MB

 Memory could be reduced to 251.47 Mwords without degradation in triples

 Integral transformation finished. Total CPU:  13.84 sec, npass=  1  Memory used: 148.81 MW

 Reference energy:                   -194.02285002

 MP2 singlet pair energy:              -0.54554066
 MP2 triplet pair energy:              -0.28224632
 MP2 correlation energy:               -0.82778699
 MP2 total energy:                   -194.85063701

 SCS-MP2 correlation energy:           -0.83026873   (PS=  1.200000  PT=  0.333333)
 SCS-MP2 total energy:               -194.85311875

 ITER.      SQ.NORM     CORR.ENERGY   TOTAL ENERGY   ENERGY CHANGE        DEN1      VAR(S)    VAR(P)  DIIS     TIME  TIME/IT
   1      1.29537493    -0.86821973  -194.89106975    -0.04043274    -0.01771447  0.34D-02  0.49D-02  1  1    19.02     5.37
   2      1.31819173    -0.87219854  -194.89504856    -0.00397881    -0.02107147  0.59D-04  0.74D-03  2  2    24.54     5.64
   3      1.32740612    -0.87244929  -194.89529931    -0.00025075    -0.00458367  0.25D-04  0.73D-04  3  3    30.08     5.75
   4      1.33107287    -0.87255819  -194.89540821    -0.00010890    -0.00114591  0.19D-05  0.89D-05  4  4    35.79     5.85
   5      1.33211270    -0.87256985  -194.89541988    -0.00001167    -0.00022162  0.26D-06  0.10D-05  5  5    41.50     5.92
   6      1.33237169    -0.87256135  -194.89541137     0.00000850    -0.00003767  0.33D-07  0.92D-07  6  6    47.24     5.97
   7      1.33240423    -0.87256142  -194.89541145    -0.00000007    -0.00000088  0.10D-07  0.13D-07  6  2    52.97     6.00
   8      1.33241109    -0.87256154  -194.89541156    -0.00000012    -0.00000010  0.24D-08  0.24D-08  6  1    58.71     6.03

 Norm of t1 vector:      0.07928983      S-energy:     0.00000020      T1 diagnostic:  0.01059555
                                                                       D1 diagnostic:  0.03169859

 Doubles amplitudes (print threshold =  0.500E-01):

         I         J         SYM. A    SYM. B    A         B      T(IJ, AB)

        13        13         1         1         1         1     -0.05595851
        14        14         1         1         1         1     -0.08180481


 Total CPU time for triples:    103.35 sec


 RESULTS
 =======

  Reference energy                   -194.022850022886
  CCSD singlet pair energy             -0.615048428514
  CCSD triplet pair energy             -0.257513312863
  CCSD correlation energy              -0.872561539339

  Triples (T) contribution             -0.040165975196
  Total correlation energy             -0.912727514535

  CCSD total energy                  -194.895411562226
  CCSD[T] energy                     -194.936532240800
  CCSD-T energy                      -194.935166595725
 !CCSD(T) total energy               -194.935577537422

 Timing summary (sec):

 STEP                 CPU(USER)    SYS     CPU(TOT)    WALL
 Transformation         13.88      1.63     15.51     15.73
 CCSD iterations        44.87      3.33     48.20     48.34
 Triples               103.35      2.64    105.99    106.33

 Program statistics:

 Available memory in ccsd:               499999178
 Min. memory needed in ccsd:              14540778
 Max. memory used in ccsd:                19779641
 Max. memory used in cckext:              15118476 ( 8 integral passes)



 **********************************************************************************************************************************
 DATASETS  * FILE   NREC   LENGTH (MB)   RECORD NAMES
              1      19      927.48       500      610      700      900      950      970     1001      129      960     1100   
                                          VAR    BASINP    GEOM    SYMINP    ZMAT    AOBASIS   BASIS     P2S    ABASIS      S 
                                         1400     1410     1200     1210     1080     1600     1650     1700     1380   
                                           T        V       H0       H01     AOSYM     SMH    MOLCAS    OPER     JKOP   

              2       6        7.37       700     1000      520     2100     1001     2101   
                                         GEOM     BASIS   MCVARS     RHF     BASIS     RHF  

 PROGRAMS   *        TOTAL   CCSD(T)    HF-SCF       INT   CCSD(T)    HF-SCF       INT
 CPU TIMES  *       185.51    162.13      4.18     10.58      7.53      0.23      0.73
 REAL TIME  *       196.79 SEC
 DISK USED  *         1.53 GB (local),       16.01 GB (total)
 SF USED    *         1.40 GB
 GA USED    *         0.00 MB       (max)       0.00 MB       (current)
 **********************************************************************************************************************************
 SETTING BASIS          =    VQZ


 Recomputing integrals since basis changed


 Using spherical harmonics

 Library entry C      S cc-pVQZ              selected for orbital group  1
 Library entry C      P cc-pVQZ              selected for orbital group  1
 Library entry C      D cc-pVQZ              selected for orbital group  1
 Library entry C      F cc-pVQZ              selected for orbital group  1
 Library entry C      G cc-pVQZ              selected for orbital group  1
 Library entry H      S cc-pVQZ              selected for orbital group  2
 Library entry H      P cc-pVQZ              selected for orbital group  2
 Library entry H      D cc-pVQZ              selected for orbital group  2
 Library entry H      F cc-pVQZ              selected for orbital group  2


 PROGRAM * SEWARD (Integral evaluation for generally contracted gaussian basis sets)     Author: Roland Lindh, 1990

 Geometry written to block  1 of record 700


 Point group  C1  



 ATOMIC COORDINATES

 NR  ATOM    CHARGE       X              Y              Z

   1  C       6.00    3.843665143   -0.194653129   -0.352222273
   2  C       6.00    1.608491414   -1.060098561    0.449218135
   3  C       6.00   -0.858330613    0.206707692    0.109195934
   4  C       6.00   -1.105644740    2.728224062    0.168106257
   5  C       6.00   -3.100256334   -1.522406830   -0.264009857
   6  H       1.00    5.579064894   -1.230926024   -0.001957756
   7  H       1.00    4.007946594    1.565195898   -1.396322413
   8  H       1.00    1.544622450   -2.890719722    1.395742267
   9  H       1.00    0.495089347    3.957441773    0.533233469
  10  H       1.00   -2.924761248    3.632355968   -0.123351873
  11  H       1.00   -4.860305673   -0.458902982   -0.453538049
  12  H       1.00   -3.303895111   -2.822659346    1.338980563
  13  H       1.00   -2.865297236   -2.698413633   -1.954522944

 Bond lengths in Bohr (Angstrom)

 1-2  2.527311640  1-6  2.051379789  1-7  2.052852186  2-3  2.793854702  2-8  2.061834380
     ( 1.337395725)     ( 1.085543435)     ( 1.086322594)     ( 1.478444239)     ( 1.091075766)

  3- 4  2.534300595   3- 5  2.855757435   4- 9  2.051010405   4-10  2.052215197   5-11  2.065123494
       ( 1.341094121)       ( 1.511201755)       ( 1.085347966)       ( 1.085985514)       ( 1.092816291)

  5-12  2.074054880   5-13  2.072687211
       ( 1.097542577)       ( 1.096818837)

 Bond angles

  1-2-3  125.94584925   1-2-8  118.49021635   2-1-6  121.40264408   2-1-7  121.71018160

  2-3-4  122.30820780   2-3-5  115.75497871   3-2-8  115.53729475   3-4-9  121.61946602

  3- 4-10  121.43578386   3- 5-11  111.67004056   3- 5-12  110.83400180   3- 5-13  111.16999565

  4- 3- 5  121.92820637   6- 1- 7  116.88500884   9- 4-10  116.93994585  11- 5-12  108.06535815

 11- 5-13  108.29757897  12- 5-13  106.60668919

 NUCLEAR CHARGE:                   38
 NUMBER OF PRIMITIVE AOS:         711
 NUMBER OF SYMMETRY AOS:          596
 NUMBER OF CONTRACTIONS:          515   (  515A   )
 NUMBER OF CORE ORBITALS:           5   (    5A   )
 NUMBER OF VALENCE ORBITALS:       28   (   28A   )


 NUCLEAR REPULSION ENERGY  159.38304447


 Eigenvalues of metric

         1 0.528E-04 0.629E-04 0.796E-04 0.876E-04 0.107E-03 0.122E-03 0.145E-03 0.160E-03


 Contracted 2-electron integrals neglected if value below      1.0D-11
 AO integral compression algorithm  1   Integral accuracy      1.0D-11

     23454.286 MB (compressed) written to integral file ( 32.9%)

     Node minimum: 2820.932 MB, node maximum: 3028.812 MB


 NUMBER OF SORTED TWO-ELECTRON INTEGRALS: 1103369088.     BUFFER LENGTH:  32768
 NUMBER OF SEGMENTS:  35  SEGMENT LENGTH:   31996696      RECORD LENGTH: 524288

 Memory used in sort:      32.55 MW

 SORT1 READ  8902778661. AND WROTE   780359341. INTEGRALS IN   2253 RECORDS. CPU TIME:   165.88 SEC, REAL TIME:   188.93 SEC
 SORT2 READ  6238111337. AND WROTE  8827284885. INTEGRALS IN  92432 RECORDS. CPU TIME:    11.09 SEC, REAL TIME:   119.71 SEC

 Node minimum:  1103352480.  Node maximum:  1103468742. integrals

 OPERATOR DM      FOR CENTER  0  COORDINATES:    0.000000    0.000000    0.000000


 **********************************************************************************************************************************
 DATASETS  * FILE   NREC   LENGTH (MB)   RECORD NAMES
              1      18       39.88       500      610      700      900      950      970     1002      129      960     1100   
                                          VAR    BASINP    GEOM    SYMINP    ZMAT    AOBASIS   BASIS     P2S    ABASIS      S 
                                         1400     1410     1200     1210     1080     1600     1650     1700   
                                           T        V       H0       H01     AOSYM     SMH    MOLCAS    OPER   

              2       7        8.85       700     1000      520     2100     1001     2101     1002   
                                         GEOM     BASIS   MCVARS     RHF     BASIS     RHF     BASIS   

 PROGRAMS   *        TOTAL       INT   CCSD(T)    HF-SCF       INT   CCSD(T)    HF-SCF       INT
 CPU TIMES  *       392.62    207.10    162.13      4.18     10.58      7.53      0.23      0.73
 REAL TIME  *       537.71 SEC
 DISK USED  *         1.53 GB (local),      105.90 GB (total)
 SF USED    *         1.40 GB
 GA USED    *         0.00 MB       (max)       0.00 MB       (current)
 **********************************************************************************************************************************


 PROGRAM * RHF-SCF (CLOSED SHELL)       Authors: W. Meyer, H.-J. Werner


 NUMBER OF ELECTRONS:      19+   19-    SPACE SYMMETRY=1    SPIN SYMMETRY: Singlet 
 CONVERGENCE THRESHOLDS:    1.00E-05 (Density)    1.00E-07 (Energy)
 MAX. NUMBER OF ITERATIONS:       60
 INTERPOLATION TYPE:            DIIS
 INTERPOLATION STEPS:              2 (START)      1 (STEP)
 LEVEL SHIFTS:                  0.00 (CLOSED)  0.00 (OPEN) 



 Molecular orbitals read from record     2101.2  Type=RHF/CANONICAL (state 1.1)

 Present basis size:      515
 Previous basis size:     262
 Previous occupation:      19
 Previous closed-shells:   19
 Previous core-orbitals:    5
 Present occupation:       19
 Present closed-shells:    19
 Present core-orbitals:     5
 Wavefunction symmetry:    1   Singlet 

 Orbital overlap <old|new>:  < 1.1| 1.1> = 0.999999   < 2.1| 2.1> = 0.999999   < 3.1| 3.1> = 0.999999   < 4.1| 4.1> = 0.999999
                             < 5.1| 5.1> = 0.999999   < 6.1| 6.1> = 0.999993   < 7.1| 7.1> = 0.999993   < 8.1| 8.1> = 0.999995
                             < 9.1| 9.1> = 0.999993   <10.1|10.1> = 0.999991   <11.1|11.1> = 0.999989   <12.1|12.1> = 0.999986
                             <13.1|13.1> = 0.999986   <14.1|14.1> = 0.999987   <15.1|15.1> = 0.999987   <16.1|16.1> = 0.999985
                             <17.1|17.1> = 0.999985   <18.1|18.1> = 0.999960   <19.1|19.1> = 0.999949


 Molecular orbital dump at record        2102.2

 ITERATION    DDIFF          GRAD             ENERGY        2-EL.EN.            DIPOLE MOMENTS         DIIS   ORB.
    1      0.000D+00      0.000D+00      -194.03292668    445.194256   -0.06132   -0.13360   -0.01147    0    start
    2      0.000D+00      0.976D-03      -194.03522356    445.205757   -0.06286   -0.13110   -0.01199    1    diag
    3      0.216D-02      0.537D-04      -194.03524342    445.177145   -0.06459   -0.13237   -0.01193    2    diag
    4      0.254D-03      0.641D-05      -194.03524429    445.188463   -0.06472   -0.13220   -0.01200    3    diag
    5      0.320D-04      0.227D-05      -194.03524439    445.182733   -0.06497   -0.13270   -0.01196    4    diag
    6      0.458D-05      0.977D-06      -194.03524440    445.184568   -0.06489   -0.13251   -0.01200    0    orth

 Final occupancy:  19

 !RHF STATE  1.1 Energy              -194.035244401098
 Nuclear energy                       159.38304447
 One-electron energy                 -576.01057295
 Two-electron energy                  222.59228408
 Virial quotient                       -1.00155587
 !RHF STATE  1.1 Dipole moment         -0.06489478    -0.13250970    -0.01199528
 Dipole moment /Debye                  -0.16493527    -0.33678399    -0.03048696

 Orbital energies:

         1.1          2.1          3.1          4.1          5.1          6.1          7.1          8.1          9.1         10.1
    -11.243426   -11.236307   -11.227068   -11.223552   -11.217238    -1.103795    -1.007327    -0.932396    -0.823963    -0.709860

        11.1         12.1         13.1         14.1         15.1         16.1         17.1         18.1         19.1         20.1
     -0.648569    -0.620036    -0.582463    -0.567480    -0.538030    -0.510810    -0.485131    -0.410051    -0.325502     0.107947

        21.1
      0.118249


 HOMO     19.1    -0.325502 =      -8.8574eV
 LUMO     20.1     0.107947 =       2.9374eV
 LUMO-HOMO         0.433449 =      11.7948eV


 **********************************************************************************************************************************
 DATASETS  * FILE   NREC   LENGTH (MB)   RECORD NAMES
              1      18       39.88       500      610      700      900      950      970     1002      129      960     1100   
                                          VAR    BASINP    GEOM    SYMINP    ZMAT    AOBASIS   BASIS     P2S    ABASIS      S 
                                         1400     1410     1200     1210     1080     1600     1650     1700   
                                           T        V       H0       H01     AOSYM     SMH    MOLCAS    OPER   

              2       8       16.66       700     1000      520     2100     1001     2101     1002     2102   
                                         GEOM     BASIS   MCVARS     RHF     BASIS     RHF     BASIS     RHF  

 PROGRAMS   *        TOTAL    HF-SCF       INT   CCSD(T)    HF-SCF       INT   CCSD(T)    HF-SCF       INT
 CPU TIMES  *       449.50     56.88    207.10    162.13      4.18     10.58      7.53      0.23      0.73
 REAL TIME  *       598.62 SEC
 DISK USED  *         1.53 GB (local),      105.90 GB (total)
 SF USED    *         1.40 GB
 GA USED    *         0.00 MB       (max)       0.00 MB       (current)
 **********************************************************************************************************************************
 Molecular orbitals read from record     2102.2  Type=RHF/CANONICAL (state 1.1)
 Occupation numbers read from record     2102.2  Type=RHF/RHF (state 1.1)
 Orbital energies read from record       2102.2  Type=RHF/CANONICAL (state 1.1)
 Redundancy group numbers read from rec  2102.2  Type=RHF/RHF (state 1.1)

 HF/cc-pVQZ energy=   -194.035244401098

          HF-SCF         CCSD(T)          HF-SCF         CCSD(T)          HF-SCF
   -194.03524440   -194.93557754   -194.02285002   -194.73544000   -193.97015782
 **********************************************************************************************************************************
 Molpro calculation terminated
