2
 energy: -0.163854384356 gnorm: 0.000000245723 xtb: 6.4.0 (d4b70c2)
H         0.00000000000000    0.00000000000000    0.38920681268783
H         0.00000000000000    0.00000000000000   -0.38920681268783
