
 Primary working directories    : /home/lcc09/tmp/molpro/molpro.RmYCW4VlNw
 Secondary working directories  : /home/lcc09/tmp/molpro/molpro.RmYCW4VlNw
 Wavefunction directory         : /root/wfu/
 Main file repository           : /home/lcc09/tmp/molpro/molpro.RmYCW4VlNw/

 id        : scuxyl

 Nodes                nprocs
 localhost.localdomain    8

 Using customized tuning parameters: mindgm=1; mindgv=20; mindgc=4; mindgr=1; noblas=0; minvec=7
 default implementation of scratch files=sf  


 Variables initialized (934), CPU time= 0.00 sec
 ***,[CH2]-T
 
 memory,20,m
 geometry={
 C        0.000000       -0.000000        0.106728
 H        0.000000       -0.993920       -0.320183
 H        0.000000        0.993920       -0.320183
 }
 
 basis=6-31g(d,p)
 {rhf;wf,8,spin,2,state,1}
 rmp2
 Commands  initialized (763), CPU time= 0.02 sec, 617 directives.
 Default parameters read. Elapsed time= 0.07 sec

 Checking input...
 Passed
1


                                         ***  PROGRAM SYSTEM MOLPRO  ***
                                       Copyright, TTI GmbH Stuttgart, 2015
                                    Version 2019.2 linked Jun  8 2019 11:26:33


 **********************************************************************************************************************************
 LABEL *   [CH2]-T                                                                       
  64 bit mpp version                                                                     DATE: 11-Nov-22          TIME: 04:16:32  
 **********************************************************************************************************************************

 SHA1:             8135a10abc80eafa5b3ae28ffc55be4890dc4c84
 **********************************************************************************************************************************

Geometry recognized as XYZ


 Variable memory set to   20000000 words,  buffer space 

 SETTING BASIS          =    6-31G(D,P)


 Recomputing integrals since basis changed


 Using spherical harmonics

 Library entry C      S 6-31G                selected for orbital group  1
 Library entry C      P 6-31G                selected for orbital group  1
 Library entry C      D 6-31G*               selected for orbital group  1
 Library entry H      S 6-31G                selected for orbital group  2
 Library entry H      P 6-31G**              selected for orbital group  2


 PROGRAM * SEWARD (Integral evaluation for generally contracted gaussian basis sets)     Author: Roland Lindh, 1990

 Geometry written to block  1 of record 700


 Point group  C2v 



 ATOMIC COORDINATES

 NR  ATOM    CHARGE       X              Y              Z

   1  C       6.00    0.000000000    0.000000000    0.201686690
   2  H       1.00    0.000000000   -1.878236590   -0.605058180
   3  H       1.00    0.000000000    1.878236590   -0.605058180

 Bond lengths in Bohr (Angstrom)

 1-2  2.044164859  1-3  2.044164859
     ( 1.081725459)     ( 1.081725459)

 Bond angles

  2-1-3  133.51077767

 NUCLEAR CHARGE:                    8
 NUMBER OF PRIMITIVE AOS:          42
 NUMBER OF SYMMETRY AOS:           41
 NUMBER OF CONTRACTIONS:           24   (   11A1  +    4B1  +    7B2  +    2A2  )
 NUMBER OF CORE ORBITALS:           1   (    1A1  +    0B1  +    0B2  +    0A2  )
 NUMBER OF VALENCE ORBITALS:        6   (    3A1  +    1B1  +    2B2  +    0A2  )


 NUCLEAR REPULSION ENERGY    6.13657516

 Eigenvalues of metric

         1 0.389E-01 0.174E+00 0.298E+00 0.408E+00 0.657E+00 0.912E+00 0.104E+01 0.120E+01
         2 0.424E+00 0.743E+00 0.108E+01 0.175E+01
         3 0.481E-01 0.190E+00 0.370E+00 0.722E+00 0.121E+01 0.143E+01 0.270E+01
         4 0.615E+00 0.138E+01


 Contracted 2-electron integrals neglected if value below      1.0D-11
 AO integral compression algorithm  1   Integral accuracy      1.0D-11

     2.097 MB (compressed) written to integral file (100.0%)

     Node minimum: 0.262 MB, node maximum: 0.262 MB


 NUMBER OF SORTED TWO-ELECTRON INTEGRALS:       1490.     BUFFER LENGTH:  32768
 NUMBER OF SEGMENTS:   1  SEGMENT LENGTH:       1490      RECORD LENGTH: 524288

 Memory used in sort:       0.56 MW

 SORT1 READ       19290. AND WROTE        1420. INTEGRALS IN      1 RECORDS. CPU TIME:     0.02 SEC, REAL TIME:     0.02 SEC
 SORT2 READ       12665. AND WROTE       13826. INTEGRALS IN      8 RECORDS. CPU TIME:     0.00 SEC, REAL TIME:     0.00 SEC

 Node minimum:        1334.  Node maximum:        2260. integrals

 OPERATOR DM      FOR CENTER  0  COORDINATES:    0.000000    0.000000    0.000000


 **********************************************************************************************************************************
 DATASETS  * FILE   NREC   LENGTH (MB)   RECORD NAMES
              1      18       29.98       500      610      700      900      950      970     1000      129      960     1100   
                                          VAR    BASINP    GEOM    SYMINP    ZMAT    AOBASIS   BASIS     P2S    ABASIS      S 
                                         1400     1410     1200     1210     1080     1600     1650     1700   
                                           T        V       H0       H01     AOSYM     SMH    MOLCAS    OPER   

 PROGRAMS   *        TOTAL       INT
 CPU TIMES  *         0.28      0.13
 REAL TIME  *         0.36 SEC
 DISK USED  *        30.28 MB (local),      275.95 MB (total)
 GA USED    *         0.00 MB       (max)       0.00 MB       (current)
 **********************************************************************************************************************************


 PROGRAM * RHF-SCF (OPEN SHELL)       Authors: W. Meyer, H.-J. Werner


 NUMBER OF ELECTRONS:       5+    3-
 CONVERGENCE THRESHOLDS:    1.00E-05 (Density)    1.00E-07 (Energy)
 MAX. NUMBER OF ITERATIONS:       60
 INTERPOLATION TYPE:            DIIS
 INTERPOLATION STEPS:              2 (START)      1 (STEP)
 LEVEL SHIFTS:                 -0.60 (CLOSED) -0.30 (OPEN) 



 Orbital guess generated from atomic densities. Full valence occupancy:    4   1   2   0

 Molecular orbital dump at record        2100.2

 Initial alpha occupancy:   3   1   1   0
 Initial beta  occupancy:   2   0   1   0
 Wave function symmetry:    2

 ITERATION    DDIFF          GRAD             ENERGY        2-EL.EN.            DIPOLE MOMENTS         DIIS   ORB.
    1      0.000D+00      0.000D+00       -38.91154086     37.294677    0.00000    0.00000   -0.30738    0    start
    2      0.000D+00      0.942D-02       -38.91763739     37.601027    0.00000    0.00000   -0.29073    1    diag,B
    3      0.674D-02      0.394D-02       -38.91942186     37.674782    0.00000    0.00000   -0.25675    2    diag,B
    4      0.472D-02      0.125D-02       -38.91975462     37.667633    0.00000    0.00000   -0.23472    3    diag,B
    5      0.249D-02      0.564D-03       -38.91984479     37.663151    0.00000    0.00000   -0.21845    4    diag,B
    6      0.195D-02      0.108D-03       -38.91984748     37.663333    0.00000    0.00000   -0.21567    5    diag,B
    7      0.331D-03      0.221D-04       -38.91984755     37.663304    0.00000    0.00000   -0.21547    6    fixocc
    8      0.529D-04      0.574D-05       -38.91984756     37.663369    0.00000    0.00000   -0.21547    7    diag,B
    9      0.184D-04      0.946D-06       -38.91984756     37.663355    0.00000    0.00000   -0.21548    8    diag,B
   10      0.313D-05      0.270D-06       -38.91984756     37.663357    0.00000    0.00000   -0.21548    0    orth

 Final alpha occupancy:   3   1   1   0
 Final beta  occupancy:   2   0   1   0

 !RHF STATE  1.2 Energy               -38.919847559733
 Nuclear energy                         6.13657516
 One-electron energy                  -63.88810134
 Two-electron energy                   18.83167862
 Virial quotient                       -1.00021757
 !RHF STATE  1.2 Dipole moment          0.00000000     0.00000000    -0.21547852
 Dipole moment /Debye                   0.00000000     0.00000000    -0.54765590

 Orbital energies:

         1.1          2.1          3.1          4.1          5.1
    -11.239685    -0.845550    -0.464141     0.251497     0.720286

         1.2          2.2          3.2
     -0.399836     0.732265     1.851477

         1.3          2.3          3.3
     -0.595149     0.325830     0.778119

         1.4          2.4
      1.661889     2.929958


 HOMO      1.2    -0.399836 =     -10.8801eV
 LUMO      4.1     0.251497 =       6.8436eV
 LUMO-HOMO         0.651333 =      17.7237eV


 **********************************************************************************************************************************
 DATASETS  * FILE   NREC   LENGTH (MB)   RECORD NAMES
              1      18       29.98       500      610      700      900      950      970     1000      129      960     1100   
                                          VAR    BASINP    GEOM    SYMINP    ZMAT    AOBASIS   BASIS     P2S    ABASIS      S 
                                         1400     1410     1200     1210     1080     1600     1650     1700   
                                           T        V       H0       H01     AOSYM     SMH    MOLCAS    OPER   

              2       4        2.78       700     1000      520     2100   
                                         GEOM     BASIS   MCVARS     RHF  

 PROGRAMS   *        TOTAL   RHF-SCF       INT
 CPU TIMES  *         0.42      0.14      0.13
 REAL TIME  *         0.51 SEC
 DISK USED  *        32.83 MB (local),      296.38 MB (total)
 SF USED    *         0.00 MB
 GA USED    *         0.00 MB       (max)       0.00 MB       (current)
 **********************************************************************************************************************************


 PROGRAM * RMP2 (Restricted open-shell)     Authors: H.-J. Werner, 2001


 Convergence thresholds:  THRVAR = 1.00D-08  THRDEN = 1.00D-06

 Number of core orbitals:           1 (   1   0   0   0 )
 Number of closed-shell orbitals:   2 (   1   0   1   0 )
 Number of active  orbitals:        2 (   1   1   0   0 )
 Number of external orbitals:      19 (   8   3   6   2 )

 Reading UHF information from record   2100.2

                               TOTAL       A-A         B-B         A-B
 Pair energies:            -0.09470928 -0.01820185 -0.00187431 -0.07463312
 Singles energies:         -0.00283747 -0.00140230 -0.00143517

 !Reference STATE  1.2 energy         -39.017394307721
 !RMP2 STATE  1.2 correl. energy       -0.097546747988
 !RMP2 STATE  1.2 total energy        -39.017394307721

 !SCS-RMP2 STATE  1.2 correl. energ    -0.096251795533
 !SCS-RMP2 STATE  1.2 total energy    -39.016099355266


 **********************************************************************************************************************************
 DATASETS  * FILE   NREC   LENGTH (MB)   RECORD NAMES
              1      18       29.98       500      610      700      900      950      970     1000      129      960     1100   
                                          VAR    BASINP    GEOM    SYMINP    ZMAT    AOBASIS   BASIS     P2S    ABASIS      S 
                                         1400     1410     1200     1210     1080     1600     1650     1700   
                                           T        V       H0       H01     AOSYM     SMH    MOLCAS    OPER   

              2       4        2.78       700     1000      520     2100   
                                         GEOM     BASIS   MCVARS     RHF  

 PROGRAMS   *        TOTAL      RMP2   RHF-SCF       INT
 CPU TIMES  *         0.47      0.03      0.14      0.13
 REAL TIME  *         0.58 SEC
 DISK USED  *        32.83 MB (local),      296.38 MB (total)
 SF USED    *         0.08 MB
 GA USED    *         0.00 MB       (max)       0.00 MB       (current)
 **********************************************************************************************************************************
 Molecular orbitals read from record     2100.2  Type=RHF/CANONICAL (state 1.2)
 Occupation numbers read from record     2100.2  Type=RHF/RHF (state 1.2)
 Orbital energies read from record       2100.2  Type=RHF/CANONICAL (state 1.2)
 Redundancy group numbers read from rec  2100.2  Type=RHF/RHF (state 1.2)

 RMP2/6-31G(D,P) energy=    -39.017394307721

            RMP2         RHF-SCF
    -39.01739431    -38.91984756
 **********************************************************************************************************************************
 Molpro calculation terminated
