
 Primary working directories    : /home/lcc09/tmp/molpro/molpro.aE9TBBzcyj
 Secondary working directories  : /home/lcc09/tmp/molpro/molpro.aE9TBBzcyj
 Wavefunction directory         : /root/wfu/
 Main file repository           : /home/lcc09/tmp/molpro/molpro.aE9TBBzcyj/

 id        : scuxyl

 Nodes                nprocs
 localhost.localdomain    8

 Using customized tuning parameters: mindgm=1; mindgv=20; mindgc=4; mindgr=1; noblas=0; minvec=7
 default implementation of scratch files=sf  


 Variables initialized (934), CPU time= 0.01 sec
 ***,[H][H]
 
 memory,20,m
 geometry={
 H        0.000000        0.000000        0.371396
 H        0.000000        0.000000       -0.371396
 }
 
 basis=6-31g(d,p)
 {hf;wf,2,spin,0,state,1}
 mp2
 Commands  initialized (763), CPU time= 0.01 sec, 617 directives.
 Default parameters read. Elapsed time= 0.06 sec

 Checking input...
 Passed
1


                                         ***  PROGRAM SYSTEM MOLPRO  ***
                                       Copyright, TTI GmbH Stuttgart, 2015
                                    Version 2019.2 linked Jun  8 2019 11:26:33


 **********************************************************************************************************************************
 LABEL *   [H][H]                                                                        
  64 bit mpp version                                                                     DATE: 11-Nov-22          TIME: 17:54:39  
 **********************************************************************************************************************************

 SHA1:             8135a10abc80eafa5b3ae28ffc55be4890dc4c84
 **********************************************************************************************************************************

Geometry recognized as XYZ


 Variable memory set to   20000000 words,  buffer space 

 SETTING BASIS          =    6-31G(D,P)


 Recomputing integrals since basis changed


 Using spherical harmonics

 Library entry H      S 6-31G                selected for orbital group  1
 Library entry H      P 6-31G**              selected for orbital group  1


 PROGRAM * SEWARD (Integral evaluation for generally contracted gaussian basis sets)     Author: Roland Lindh, 1990

 Geometry written to block  1 of record 700


 Point group  D2h 



 ATOMIC COORDINATES

 NR  ATOM    CHARGE       X              Y              Z

   1  H       1.00    0.000000000    0.000000000    0.701836724
   2  H       1.00    0.000000000    0.000000000   -0.701836724

 Bond lengths in Bohr (Angstrom)

 1-2  1.403673448
     ( 0.742792000)

 NUCLEAR CHARGE:                    2
 NUMBER OF PRIMITIVE AOS:          14
 NUMBER OF SYMMETRY AOS:           14
 NUMBER OF CONTRACTIONS:           10   (    3Ag  +    1B3u +    1B2u +    0B1g +    3B1u +    1B2g +    1B3g +    0Au  )
 NUMBER OF CORE ORBITALS:           0   (    0Ag  +    0B3u +    0B2u +    0B1g +    0B1u +    0B2g +    0B3g +    0Au  )
 NUMBER OF VALENCE ORBITALS:        2   (    1Ag  +    0B3u +    0B2u +    0B1g +    1B1u +    0B2g +    0B3g +    0Au  )


 NUCLEAR REPULSION ENERGY    0.71241641

 Eigenvalues of metric

         1 0.398E+00 0.135E+01 0.295E+01
         2 0.134E+01
         3 0.134E+01
         5 0.968E-01 0.107E+00 0.110E+01
         6 0.662E+00
         7 0.662E+00


 Contracted 2-electron integrals neglected if value below      1.0D-11
 AO integral compression algorithm  1   Integral accuracy      1.0D-11

     2.097 MB (compressed) written to integral file (100.0%)

     Node minimum: 0.262 MB, node maximum: 0.262 MB


 NUMBER OF SORTED TWO-ELECTRON INTEGRALS:         21.     BUFFER LENGTH:  32768
 NUMBER OF SEGMENTS:   1  SEGMENT LENGTH:         21      RECORD LENGTH: 524288

 Memory used in sort:       0.56 MW

 SORT1 READ         776. AND WROTE          21. INTEGRALS IN      1 RECORDS. CPU TIME:     0.02 SEC, REAL TIME:     0.01 SEC
 SORT2 READ         373. AND WROTE         373. INTEGRALS IN      8 RECORDS. CPU TIME:     0.00 SEC, REAL TIME:     0.01 SEC

 Node minimum:           0.  Node maximum:         174. integrals

 OPERATOR DM      FOR CENTER  0  COORDINATES:    0.000000    0.000000    0.000000


 **********************************************************************************************************************************
 DATASETS  * FILE   NREC   LENGTH (MB)   RECORD NAMES
              1      18       29.95       500      610      700      900      950      970     1000      129      960     1100   
                                          VAR    BASINP    GEOM    SYMINP    ZMAT    AOBASIS   BASIS     P2S    ABASIS      S 
                                         1400     1410     1200     1210     1080     1600     1650     1700   
                                           T        V       H0       H01     AOSYM     SMH    MOLCAS    OPER   

 PROGRAMS   *        TOTAL       INT
 CPU TIMES  *         0.23      0.11
 REAL TIME  *         0.33 SEC
 DISK USED  *        30.23 MB (local),      271.46 MB (total)
 GA USED    *         0.00 MB       (max)       0.00 MB       (current)
 **********************************************************************************************************************************


 PROGRAM * RHF-SCF (CLOSED SHELL)       Authors: W. Meyer, H.-J. Werner


 NUMBER OF ELECTRONS:       1+    1-
 CONVERGENCE THRESHOLDS:    1.00E-05 (Density)    1.00E-07 (Energy)
 MAX. NUMBER OF ITERATIONS:       60
 INTERPOLATION TYPE:            DIIS
 INTERPOLATION STEPS:              2 (START)      1 (STEP)
 LEVEL SHIFTS:                  0.00 (CLOSED)  0.00 (OPEN) 



 Orbital guess generated from atomic densities. Full valence occupancy:    1   0   0   0   1   0   0   0


 Molecular orbital dump at record        2100.2

 Initial occupancy:   1   0   0   0   0   0   0

 ITERATION    DDIFF          GRAD             ENERGY        2-EL.EN.            DIPOLE MOMENTS         DIIS   ORB.
    1      0.000D+00      0.000D+00        -1.13027390      1.282689    0.00000    0.00000    0.00000    0    start
    2      0.000D+00      0.174D-01        -1.13124034      1.307220    0.00000    0.00000    0.00000    1    diag
    3      0.100D-01      0.233D-02        -1.13125879      1.311059    0.00000    0.00000    0.00000    2    diag
    4      0.167D-02      0.883D-04        -1.13125880      1.311104    0.00000    0.00000    0.00000    3    diag
    5      0.377D-04      0.278D-06        -1.13125880      1.311104    0.00000    0.00000    0.00000    4    diag
    6      0.204D-06      0.357D-10        -1.13125880      1.311104    0.00000    0.00000    0.00000    0    orth

 Final occupancy:   1   0   0   0   0   0   0

 !RHF STATE  1.1 Energy                -1.131258803000
 Nuclear energy                         0.71241641
 One-electron energy                   -2.49922701
 Two-electron energy                    0.65555180
 Virial quotient                       -1.00502487
 !RHF STATE  1.1 Dipole moment          0.00000000     0.00000000     0.00000000
 Dipole moment /Debye                   0.00000000     0.00000000     0.00000000

 Orbital energies:

         1.1          2.1          3.1
     -0.594062     0.772345     2.700770

         1.2
      1.959287

         1.3
      1.959287

         1.5          2.5
      0.238817     1.308109

         1.6
      2.927890

         1.7
      2.927890


 HOMO      1.1    -0.594062 =     -16.1652eV
 LUMO      1.5     0.238817 =       6.4985eV
 LUMO-HOMO         0.832879 =      22.6638eV


 **********************************************************************************************************************************
 DATASETS  * FILE   NREC   LENGTH (MB)   RECORD NAMES
              1      18       29.95       500      610      700      900      950      970     1000      129      960     1100   
                                          VAR    BASINP    GEOM    SYMINP    ZMAT    AOBASIS   BASIS     P2S    ABASIS      S 
                                         1400     1410     1200     1210     1080     1600     1650     1700   
                                           T        V       H0       H01     AOSYM     SMH    MOLCAS    OPER   

              2       4        2.76       700     1000      520     2100   
                                         GEOM     BASIS   MCVARS     RHF  

 PROGRAMS   *        TOTAL    HF-SCF       INT
 CPU TIMES  *         0.31      0.07      0.11
 REAL TIME  *         0.43 SEC
 DISK USED  *        32.75 MB (local),      291.63 MB (total)
 SF USED    *         0.00 MB
 GA USED    *         0.00 MB       (max)       0.00 MB       (current)
 **********************************************************************************************************************************


 PROGRAM * MP2 (Closed-shell)     Authors: C. Hampel, H.-J. Werner, 1991, M. Deegan, P.J. Knowles, 1992


 Convergence thresholds:  THRVAR = 1.00D-08  THRDEN = 1.00D-06

 Number of closed-shell orbitals:   1 (   1   0   0   0   0   0   0 )
 Number of external orbitals:       9 (   2   1   1   0   3   1   1 )

 Molecular orbitals read from record     2100.2  Type=RHF/CANONICAL (state 1.1)

 Number of N-1 electron functions:               1
 Number of N-2 electron functions:               1
 Number of singly external CSFs:                 2
 Number of doubly external CSFs:                13
 Total number of CSFs:                          16

 Length of J-op  integral file:               0.00 MB
 Length of K-op  integral file:               0.00 MB

 Integral transformation finished. Total CPU:   0.00 sec, npass=  1  Memory used:   0.07 MW

 Memory needed for MP2:                      0.00 MW

 SCS-MP2 correlation energy:           -0.031614553237   (PS=  1.200000  PT=  0.333333)
 SCS-MP2 total energy:                 -1.162873356237


  Reference energy                     -1.131258803000
  MP2 singlet pair energy              -0.026345461031
  MP2 triplet pair energy               0.000000000000
  MP2 correlation energy               -0.026345461031

 !MP2 total energy                     -1.157604264031


 **********************************************************************************************************************************
 DATASETS  * FILE   NREC   LENGTH (MB)   RECORD NAMES
              1      19       29.95       500      610      700      900      950      970     1000      129      960     1100   
                                          VAR    BASINP    GEOM    SYMINP    ZMAT    AOBASIS   BASIS     P2S    ABASIS      S 
                                         1400     1410     1200     1210     1080     1600     1650     1700     1380   
                                           T        V       H0       H01     AOSYM     SMH    MOLCAS    OPER     JKOP   

              2       4        2.76       700     1000      520     2100   
                                         GEOM     BASIS   MCVARS     RHF  

 PROGRAMS   *        TOTAL       MP2    HF-SCF       INT
 CPU TIMES  *         0.36      0.04      0.07      0.11
 REAL TIME  *         0.47 SEC
 DISK USED  *        32.75 MB (local),      291.63 MB (total)
 SF USED    *         0.00 MB
 GA USED    *         0.00 MB       (max)       0.00 MB       (current)
 **********************************************************************************************************************************
 Molecular orbitals read from record     2100.2  Type=RHF/CANONICAL (state 1.1)
 Occupation numbers read from record     2100.2  Type=RHF/RHF (state 1.1)
 Orbital energies read from record       2100.2  Type=RHF/CANONICAL (state 1.1)
 Redundancy group numbers read from rec  2100.2  Type=RHF/RHF (state 1.1)

 MP2/6-31G(D,P) energy=     -1.157604264031

             MP2          HF-SCF
     -1.15760426     -1.13125880
 **********************************************************************************************************************************
 Molpro calculation terminated
