
 Primary working directories    : /home/lcc09/tmp/molpro/molpro.IdorL1pfwy
 Secondary working directories  : /home/lcc09/tmp/molpro/molpro.IdorL1pfwy
 Wavefunction directory         : /root/wfu/
 Main file repository           : /home/lcc09/tmp/molpro/molpro.IdorL1pfwy/

 id        : scuxyl

 Nodes                nprocs
 localhost.localdomain    8

 Using customized tuning parameters: mindgm=1; mindgv=20; mindgc=4; mindgr=1; noblas=0; minvec=7
 default implementation of scratch files=sf  


 Variables initialized (934), CPU time= 0.00 sec
 ***,C=C(C)C
 
 memory,80,m
 geometry={
 C        0.000000        0.000000        1.459459
 C        0.000000        0.000000        0.123062
 C       -0.000000        1.277443       -0.678736
 C       -0.000000       -1.277443       -0.678736
 H        0.000000       -0.924830        2.029791
 H        0.000000        0.924830        2.029791
 H        0.879047        1.330576       -1.334277
 H       -0.879047        1.330576       -1.334277
 H       -0.000000        2.161883       -0.036383
 H        0.879047       -1.330576       -1.334277
 H       -0.000000       -2.161883       -0.036383
 H       -0.879047       -1.330576       -1.334277
 }
 
 basis=6-31g(d,p)
 {hf;wf,32,spin,0,state,1}
 mp2
 Commands  initialized (763), CPU time= 0.01 sec, 617 directives.
 Default parameters read. Elapsed time= 0.06 sec

 Checking input...
 Passed
1


                                         ***  PROGRAM SYSTEM MOLPRO  ***
                                       Copyright, TTI GmbH Stuttgart, 2015
                                    Version 2019.2 linked Jun  8 2019 11:26:33


 **********************************************************************************************************************************
 LABEL *   C=C(C)C                                                                       
  64 bit mpp version                                                                     DATE: 11-Nov-22          TIME: 07:28:14  
 **********************************************************************************************************************************

 SHA1:             8135a10abc80eafa5b3ae28ffc55be4890dc4c84
 **********************************************************************************************************************************

Geometry recognized as XYZ


 Variable memory set to   80000000 words,  buffer space 

 SETTING BASIS          =    6-31G(D,P)


 Recomputing integrals since basis changed


 Using spherical harmonics

 Library entry C      S 6-31G                selected for orbital group  1
 Library entry C      P 6-31G                selected for orbital group  1
 Library entry C      D 6-31G*               selected for orbital group  1
 Library entry H      S 6-31G                selected for orbital group  2
 Library entry H      P 6-31G**              selected for orbital group  2


 PROGRAM * SEWARD (Integral evaluation for generally contracted gaussian basis sets)     Author: Roland Lindh, 1990

 Geometry written to block  1 of record 700


 Point group  C2v 



 ATOMIC COORDINATES

 NR  ATOM    CHARGE       X              Y              Z

   1  C       6.00    0.000000000    0.000000000    2.757977800
   2  C       6.00    0.000000000    0.000000000    0.232553476
   3  C       6.00    0.000000000    2.414017410   -1.282625151
   4  C       6.00    0.000000000   -2.414017410   -1.282625151
   5  H       1.00    0.000000000   -1.747675412    3.835749080
   6  H       1.00    0.000000000    1.747675412    3.835749080
   7  H       1.00    1.661158081    2.514424228   -2.521418104
   8  H       1.00   -1.661158081    2.514424228   -2.521418104
   9  H       1.00    1.661158081   -2.514424228   -2.521418104
  10  H       1.00   -1.661158081   -2.514424228   -2.521418104
  11  H       1.00    0.000000000    4.085366783   -0.068753906
  12  H       1.00    0.000000000   -4.085366783   -0.068753906

 Bond lengths in Bohr (Angstrom)

 1-2  2.525424324  1-5  2.053280370  1-6  2.053280370  2-3  2.850130932  2-4  2.850130932
     ( 1.336397000)     ( 1.086549179)     ( 1.086549179)     ( 1.508224337)     ( 1.508224337)

  3- 7  2.074641097   3- 8  2.074641097   3-11  2.065645693   4- 9  2.074641097   4-10  2.074641097
       ( 1.097852789)       ( 1.097852789)       ( 1.093092627)       ( 1.097852789)       ( 1.097852789)

  4-12  2.065645693
       ( 1.093092627)

 Bond angles

  1-2-3  122.11478781   1-2-4  122.11478781   2-1-5  121.66165625   2-1-6  121.66165625

  2- 3- 7  111.00360341   2- 3- 8  111.00360341   2- 3-11  111.89497707   2- 4- 9  111.00360341

  2- 4-10  111.00360341   2- 4-12  111.89497707   3- 2- 4  115.77042437   5- 1- 6  116.67668749

  7- 3- 8  106.39334945   7- 3-11  108.16365487   8- 3-11  108.16365487   9- 4-10  106.39334945

  9- 4-12  108.16365487  10- 4-12  108.16365487

 NUCLEAR CHARGE:                   32
 NUMBER OF PRIMITIVE AOS:         168
 NUMBER OF SYMMETRY AOS:          164
 NUMBER OF CONTRACTIONS:           96   (   37A1  +   17B1  +   29B2  +   13A2  )
 NUMBER OF CORE ORBITALS:           4   (    3A1  +    0B1  +    1B2  +    0A2  )
 NUMBER OF VALENCE ORBITALS:       24   (   10A1  +    4B1  +    8B2  +    2A2  )


 NUCLEAR REPULSION ENERGY  119.43426929


 Eigenvalues of metric

         1 0.400E-02 0.750E-02 0.310E-01 0.371E-01 0.617E-01 0.140E+00 0.173E+00 0.181E+00
         2 0.433E-01 0.149E+00 0.181E+00 0.355E+00 0.511E+00 0.528E+00 0.591E+00 0.697E+00
         3 0.442E-02 0.237E-01 0.332E-01 0.479E-01 0.161E+00 0.169E+00 0.175E+00 0.238E+00
         4 0.558E-01 0.177E+00 0.317E+00 0.555E+00 0.625E+00 0.677E+00 0.985E+00 0.987E+00


 Contracted 2-electron integrals neglected if value below      1.0D-11
 AO integral compression algorithm  1   Integral accuracy      1.0D-11

     14.942 MB (compressed) written to integral file ( 52.8%)

     Node minimum: 1.835 MB, node maximum: 2.097 MB


 NUMBER OF SORTED TWO-ELECTRON INTEGRALS:     356474.     BUFFER LENGTH:  32768
 NUMBER OF SEGMENTS:   1  SEGMENT LENGTH:     356474      RECORD LENGTH: 524288

 Memory used in sort:       0.91 MW

 SORT1 READ     3498928. AND WROTE      338333. INTEGRALS IN      1 RECORDS. CPU TIME:     0.06 SEC, REAL TIME:     0.07 SEC
 SORT2 READ     2707407. AND WROTE     2861852. INTEGRALS IN     64 RECORDS. CPU TIME:     0.02 SEC, REAL TIME:     0.01 SEC

 Node minimum:      354603.  Node maximum:      363312. integrals

 OPERATOR DM      FOR CENTER  0  COORDINATES:    0.000000    0.000000    0.000000


 **********************************************************************************************************************************
 DATASETS  * FILE   NREC   LENGTH (MB)   RECORD NAMES
              1      18       30.26       500      610      700      900      950      970     1000      129      960     1100   
                                          VAR    BASINP    GEOM    SYMINP    ZMAT    AOBASIS   BASIS     P2S    ABASIS      S 
                                         1400     1410     1200     1210     1080     1600     1650     1700   
                                           T        V       H0       H01     AOSYM     SMH    MOLCAS    OPER   

 PROGRAMS   *        TOTAL       INT
 CPU TIMES  *         0.41      0.28
 REAL TIME  *         0.53 SEC
 DISK USED  *        30.74 MB (local),      292.15 MB (total)
 GA USED    *         0.00 MB       (max)       0.00 MB       (current)
 **********************************************************************************************************************************


 PROGRAM * RHF-SCF (CLOSED SHELL)       Authors: W. Meyer, H.-J. Werner


 NUMBER OF ELECTRONS:      16+   16-
 CONVERGENCE THRESHOLDS:    1.00E-05 (Density)    1.00E-07 (Energy)
 MAX. NUMBER OF ITERATIONS:       60
 INTERPOLATION TYPE:            DIIS
 INTERPOLATION STEPS:              2 (START)      1 (STEP)
 LEVEL SHIFTS:                  0.00 (CLOSED)  0.00 (OPEN) 



 Orbital guess generated from atomic densities. Full valence occupancy:   13   4   9   2

 Molecular orbital dump at record        2100.2

 Initial occupancy:   8   2   5   1

 ITERATION    DDIFF          GRAD             ENERGY        2-EL.EN.            DIPOLE MOMENTS         DIIS   ORB.
    1      0.000D+00      0.000D+00      -156.06106958    343.565138    0.00000    0.00000   -0.55186    0    start
    2      0.000D+00      0.992D-02      -156.11586395    338.858530    0.00000    0.00000   -0.18897    1    diag
    3      0.105D-01      0.367D-02      -156.12203534    340.465112    0.00000    0.00000   -0.22460    2    diag
    4      0.412D-02      0.944D-03      -156.12279076    340.171409    0.00000    0.00000   -0.20152    3    diag
    5      0.172D-02      0.153D-03      -156.12280647    340.206173    0.00000    0.00000   -0.19150    4    diag
    6      0.282D-03      0.725D-04      -156.12280886    340.197861    0.00000    0.00000   -0.19233    5    diag
    7      0.915D-04      0.132D-04      -156.12280905    340.199551    0.00000    0.00000   -0.19105    6    diag
    8      0.256D-04      0.742D-05      -156.12280910    340.199301    0.00000    0.00000   -0.19080    7    diag
    9      0.134D-04      0.208D-05      -156.12280911    340.199365    0.00000    0.00000   -0.19057    8    diag
   10      0.525D-05      0.461D-06      -156.12280911    340.199321    0.00000    0.00000   -0.19056    0    orth

 Final occupancy:   8   2   5   1

 !RHF STATE  1.1 Energy              -156.122809105483
 Nuclear energy                       119.43426929
 One-electron energy                 -445.65673868
 Two-electron energy                  170.09966028
 Virial quotient                       -1.00098738
 !RHF STATE  1.1 Dipole moment          0.00000000     0.00000000    -0.19055988
 Dipole moment /Debye                   0.00000000     0.00000000    -0.48432317

 Orbital energies:

         1.1          2.1          3.1          4.1          5.1          6.1          7.1          8.1          9.1         10.1
    -11.236412   -11.219948   -11.209334    -1.083756    -0.922141    -0.715375    -0.605322    -0.511441     0.233767     0.283845

         1.2          2.2          3.2          4.2
     -0.585026    -0.341511     0.188544     0.328308

         1.3          2.3          3.3          4.3          5.3          6.3          7.3
    -11.219983    -0.938222    -0.614085    -0.517662    -0.475352     0.301247     0.302645

         1.4          2.4          3.4
     -0.533139     0.340539     0.780711


 HOMO      2.2    -0.341511 =      -9.2930eV
 LUMO      3.2     0.188544 =       5.1305eV
 LUMO-HOMO         0.530054 =      14.4235eV


 **********************************************************************************************************************************
 DATASETS  * FILE   NREC   LENGTH (MB)   RECORD NAMES
              1      18       30.26       500      610      700      900      950      970     1000      129      960     1100   
                                          VAR    BASINP    GEOM    SYMINP    ZMAT    AOBASIS   BASIS     P2S    ABASIS      S 
                                         1400     1410     1200     1210     1080     1600     1650     1700   
                                           T        V       H0       H01     AOSYM     SMH    MOLCAS    OPER   

              2       4        3.00       700     1000      520     2100   
                                         GEOM     BASIS   MCVARS     RHF  

 PROGRAMS   *        TOTAL    HF-SCF       INT
 CPU TIMES  *         0.50      0.09      0.28
 REAL TIME  *         0.64 SEC
 DISK USED  *        33.51 MB (local),      314.27 MB (total)
 SF USED    *         0.01 MB
 GA USED    *         0.00 MB       (max)       0.00 MB       (current)
 **********************************************************************************************************************************


 PROGRAM * MP2 (Closed-shell)     Authors: C. Hampel, H.-J. Werner, 1991, M. Deegan, P.J. Knowles, 1992


 Convergence thresholds:  THRVAR = 1.00D-08  THRDEN = 1.00D-06

 Number of core orbitals:           4 (   3   0   1   0 )
 Number of closed-shell orbitals:  12 (   5   2   4   1 )
 Number of external orbitals:      80 (  29  15  24  12 )

 Molecular orbitals read from record     2100.2  Type=RHF/CANONICAL (state 1.1)

 Number of N-1 electron functions:              12
 Number of N-2 electron functions:              78
 Number of singly external CSFs:               283
 Number of doubly external CSFs:            118754
 Total number of CSFs:                      119038

 Length of J-op  integral file:               0.00 MB
 Length of K-op  integral file:               0.18 MB

 Integral transformation finished. Total CPU:   0.01 sec, npass=  1  Memory used:   0.25 MW

 Memory needed for MP2:                      0.01 MW

 SCS-MP2 correlation energy:           -0.567412735927   (PS=  1.200000  PT=  0.333333)
 SCS-MP2 total energy:               -156.690221841410


  Reference energy                   -156.122809105483
  MP2 singlet pair energy              -0.375349383945
  MP2 triplet pair energy              -0.188025227988
  MP2 correlation energy               -0.563374611933

 !MP2 total energy                   -156.686183717417


 **********************************************************************************************************************************
 DATASETS  * FILE   NREC   LENGTH (MB)   RECORD NAMES
              1      19       32.57       500      610      700      900      950      970     1000      129      960     1100   
                                          VAR    BASINP    GEOM    SYMINP    ZMAT    AOBASIS   BASIS     P2S    ABASIS      S 
                                         1400     1410     1200     1210     1080     1600     1650     1700     1380   
                                           T        V       H0       H01     AOSYM     SMH    MOLCAS    OPER     JKOP   

              2       4        3.00       700     1000      520     2100   
                                         GEOM     BASIS   MCVARS     RHF  

 PROGRAMS   *        TOTAL       MP2    HF-SCF       INT
 CPU TIMES  *         0.54      0.03      0.09      0.28
 REAL TIME  *         0.69 SEC
 DISK USED  *        35.63 MB (local),      331.25 MB (total)
 SF USED    *         5.15 MB
 GA USED    *         0.00 MB       (max)       0.00 MB       (current)
 **********************************************************************************************************************************
 Molecular orbitals read from record     2100.2  Type=RHF/CANONICAL (state 1.1)
 Occupation numbers read from record     2100.2  Type=RHF/RHF (state 1.1)
 Orbital energies read from record       2100.2  Type=RHF/CANONICAL (state 1.1)
 Redundancy group numbers read from rec  2100.2  Type=RHF/RHF (state 1.1)

 MP2/6-31G(D,P) energy=   -156.686183717417

             MP2          HF-SCF
   -156.68618372   -156.12280911
 **********************************************************************************************************************************
 Molpro calculation terminated
