
 Primary working directories    : /home/lcc09/tmp/molpro/molpro.d5jEYPOgjH
 Secondary working directories  : /home/lcc09/tmp/molpro/molpro.d5jEYPOgjH
 Wavefunction directory         : /root/wfu/
 Main file repository           : /home/lcc09/tmp/molpro/molpro.d5jEYPOgjH/

 id        : scuxyl

 Nodes                nprocs
 localhost.localdomain    8

 Using customized tuning parameters: mindgm=1; mindgv=20; mindgc=4; mindgr=1; noblas=0; minvec=7
 default implementation of scratch files=sf  


 Variables initialized (934), CPU time= 0.01 sec
 ***,C=C(C)CC
 
 memory,100,m
 geometry={
 C        1.312213        0.808038        0.000000
 C        0.000000        0.553940        0.000000
 C       -1.019902        1.667303        0.000000
 C       -0.586816       -0.843076        0.000000
 C        0.407294       -2.005531        0.000000
 H        2.057703        0.020119        0.000000
 H        1.686937        1.827642        0.000000
 H       -0.546195        2.652398        0.000000
 H       -1.674232        1.603363       -0.879204
 H       -1.674232        1.603363        0.879204
 H       -1.253652       -0.933643        0.870634
 H       -1.253652       -0.933643       -0.870634
 H       -0.122212       -2.963130        0.000000
 H        1.051400       -1.980261       -0.884747
 H        1.051400       -1.980261        0.884747
 }
 
 basis=6-31g(d,p)
 {hf;wf,40,spin,0,state,1}
 mp2
 Commands  initialized (763), CPU time= 0.01 sec, 617 directives.
 Default parameters read. Elapsed time= 0.06 sec

 Checking input...
 Passed
1


                                         ***  PROGRAM SYSTEM MOLPRO  ***
                                       Copyright, TTI GmbH Stuttgart, 2015
                                    Version 2019.2 linked Jun  8 2019 11:26:33


 **********************************************************************************************************************************
 LABEL *   C=C(C)CC                                                                      
  64 bit mpp version                                                                     DATE: 11-Nov-22          TIME: 06:53:18  
 **********************************************************************************************************************************

 SHA1:             8135a10abc80eafa5b3ae28ffc55be4890dc4c84
 **********************************************************************************************************************************

Geometry recognized as XYZ


 Variable memory set to  100000000 words,  buffer space 

 SETTING BASIS          =    6-31G(D,P)


 Recomputing integrals since basis changed


 Using spherical harmonics

 Library entry C      S 6-31G                selected for orbital group  1
 Library entry C      P 6-31G                selected for orbital group  1
 Library entry C      D 6-31G*               selected for orbital group  1
 Library entry H      S 6-31G                selected for orbital group  2
 Library entry H      P 6-31G**              selected for orbital group  2


 PROGRAM * SEWARD (Integral evaluation for generally contracted gaussian basis sets)     Author: Roland Lindh, 1990

 Geometry written to block  1 of record 700


 Point group  Cs  



 ATOMIC COORDINATES

 NR  ATOM    CHARGE       X              Y              Z

   1  C       6.00    2.479723187    1.526970518    0.000000000
   2  C       6.00    0.000000000    1.046794889    0.000000000
   3  C       6.00   -1.927335454    3.150746037    0.000000000
   4  C       6.00   -1.108921526   -1.593182742    0.000000000
   5  C       6.00    0.769674112   -3.789904324    0.000000000
   6  H       1.00    3.888495116    0.038019400    0.000000000
   7  H       1.00    3.187848919    3.453742834    0.000000000
   8  H       1.00   -1.032158961    5.012305793    0.000000000
   9  H       1.00   -3.163839949    3.029916948   -1.661454768
  10  H       1.00   -3.163839949    3.029916948    1.661454768
  11  H       1.00   -2.369058936   -1.764329568    1.645259815
  12  H       1.00   -2.369058936   -1.764329568   -1.645259815
  13  H       1.00   -0.230947209   -5.599504171    0.000000000
  14  H       1.00    1.986858047   -3.742150945   -1.671929520
  15  H       1.00    1.986858047   -3.742150945    1.671929520

 Bond lengths in Bohr (Angstrom)

 1-2  2.525786159  1-6  2.049783837  1-7  2.052777048  2-3  2.853284490  2-4  2.863422575
     ( 1.336588475)     ( 1.084698894)     ( 1.086282833)     ( 1.509893128)     ( 1.515257972)

  3- 8  2.065610244   3- 9  2.074602367   3-10  2.074602367   4- 5  2.890451051   4-11  2.079451222
       ( 1.093073868)       ( 1.097832294)       ( 1.097832294)       ( 1.529560826)       ( 1.100398198)

  4-12  2.079451222   5-13  2.067823647   5-14  2.068614376   5-15  2.068614376
       ( 1.100398198)       ( 1.094245150)       ( 1.094663586)       ( 1.094663586)

 Bond angles

  1-2-3  121.53223736   1-2-4  123.74398829   2-1-6  122.45587886   2-1-7  121.13851424

  2- 3- 8  111.82688386   2- 3- 9  111.07888112   2- 3-10  111.07888112   2- 4- 5  116.67872978

  2- 4-11  108.09333733   2- 4-12  108.09333733   3- 2- 4  114.72377435   4- 5-13  110.52307610

  4- 5-14  111.40014253   4- 5-15  111.40014253   5- 4-11  109.34801085   5- 4-12  109.34801085

  6- 1- 7  116.40560690   8- 3- 9  108.10664560   8- 3-10  108.10664560   9- 3-10  106.42356916

 11- 4-12  104.59541083  13- 5-14  107.75405901  13- 5-15  107.75405901  14- 5-15  107.84796601

 NUCLEAR CHARGE:                   40
 NUMBER OF PRIMITIVE AOS:         210
 NUMBER OF SYMMETRY AOS:          205
 NUMBER OF CONTRACTIONS:          120   (   81A'  +   39A"  )
 NUMBER OF CORE ORBITALS:           5   (    5A'  +    0A"  )
 NUMBER OF VALENCE ORBITALS:       30   (   22A'  +    8A"  )


 NUCLEAR REPULSION ENERGY  175.08341455


 Eigenvalues of metric

         1 0.346E-02 0.391E-02 0.598E-02 0.108E-01 0.235E-01 0.296E-01 0.309E-01 0.331E-01
         2 0.299E-01 0.521E-01 0.594E-01 0.147E+00 0.175E+00 0.177E+00 0.182E+00 0.250E+00


 Contracted 2-electron integrals neglected if value below      1.0D-11
 AO integral compression algorithm  1   Integral accuracy      1.0D-11

     46.662 MB (compressed) written to integral file ( 42.1%)

     Node minimum: 4.194 MB, node maximum: 7.078 MB


 NUMBER OF SORTED TWO-ELECTRON INTEGRALS:    1694995.     BUFFER LENGTH:  32768
 NUMBER OF SEGMENTS:   1  SEGMENT LENGTH:    1694995      RECORD LENGTH: 524288

 Memory used in sort:       2.25 MW

 SORT1 READ    13703348. AND WROTE     1337200. INTEGRALS IN      4 RECORDS. CPU TIME:     0.18 SEC, REAL TIME:     0.20 SEC
 SORT2 READ    10621347. AND WROTE    13591911. INTEGRALS IN    184 RECORDS. CPU TIME:     0.04 SEC, REAL TIME:     0.03 SEC

 Node minimum:     1693459.  Node maximum:     1705472. integrals

 OPERATOR DM      FOR CENTER  0  COORDINATES:    0.000000    0.000000    0.000000


 **********************************************************************************************************************************
 DATASETS  * FILE   NREC   LENGTH (MB)   RECORD NAMES
              1      18       30.51       500      610      700      900      950      970     1000      129      960     1100   
                                          VAR    BASINP    GEOM    SYMINP    ZMAT    AOBASIS   BASIS     P2S    ABASIS      S 
                                         1400     1410     1200     1210     1080     1600     1650     1700   
                                           T        V       H0       H01     AOSYM     SMH    MOLCAS    OPER   

 PROGRAMS   *        TOTAL       INT
 CPU TIMES  *         0.74      0.61
 REAL TIME  *         0.89 SEC
 DISK USED  *        31.05 MB (local),      425.49 MB (total)
 GA USED    *         0.00 MB       (max)       0.00 MB       (current)
 **********************************************************************************************************************************


 PROGRAM * RHF-SCF (CLOSED SHELL)       Authors: W. Meyer, H.-J. Werner


 NUMBER OF ELECTRONS:      20+   20-
 CONVERGENCE THRESHOLDS:    1.00E-05 (Density)    1.00E-07 (Energy)
 MAX. NUMBER OF ITERATIONS:       60
 INTERPOLATION TYPE:            DIIS
 INTERPOLATION STEPS:              2 (START)      1 (STEP)
 LEVEL SHIFTS:                  0.00 (CLOSED)  0.00 (OPEN) 



 Orbital guess generated from atomic densities. Full valence occupancy:   27   8

 Molecular orbital dump at record        2100.2

 Initial occupancy:  16   4

 ITERATION    DDIFF          GRAD             ENERGY        2-EL.EN.            DIPOLE MOMENTS         DIIS   ORB.
    1      0.000D+00      0.000D+00      -195.08215831    481.186926   -0.56601   -0.11894    0.00000    0    start
    2      0.000D+00      0.637D-02      -195.14965713    475.171813   -0.16227   -0.05121    0.00000    1    diag
    3      0.686D-02      0.243D-02      -195.15768792    477.260686   -0.23403   -0.06304    0.00000    2    diag
    4      0.273D-02      0.632D-03      -195.15868891    476.878390   -0.19872   -0.05850    0.00000    3    diag
    5      0.115D-02      0.893D-04      -195.15870659    476.901380   -0.19226   -0.05484    0.00000    4    diag
    6      0.184D-03      0.378D-04      -195.15870877    476.893919   -0.19227   -0.05503    0.00000    5    diag
    7      0.543D-04      0.698D-05      -195.15870895    476.896895   -0.19092   -0.05474    0.00000    6    diag
    8      0.143D-04      0.459D-05      -195.15870899    476.896254   -0.19081   -0.05462    0.00000    7    diag
    9      0.735D-05      0.124D-05      -195.15870900    476.896236   -0.19070   -0.05461    0.00000    0    orth

 Final occupancy:  16   4

 !RHF STATE  1.1 Energy              -195.158708998666
 Nuclear energy                       175.08341455
 One-electron energy                 -608.69024170
 Two-electron energy                  238.44811814
 Virial quotient                       -1.00091390
 !RHF STATE  1.1 Dipole moment         -0.19069749    -0.05460919     0.00000000
 Dipole moment /Debye                  -0.48467293    -0.13879363     0.00000000

 Orbital energies:

         1.1          2.1          3.1          4.1          5.1          6.1          7.1          8.1          9.1         10.1
    -11.234336   -11.225439   -11.218933   -11.214423   -11.207691    -1.092467    -0.995751    -0.924468    -0.856811    -0.706240

        11.1         12.1         13.1         14.1         15.1         16.1         17.1         18.1
     -0.628604    -0.588514    -0.544905    -0.512749    -0.486373    -0.462175     0.233473     0.265044

         1.2          2.2          3.2          4.2          5.2          6.2
     -0.612385    -0.556289    -0.487361    -0.341087     0.189443     0.309932


 HOMO      4.2    -0.341087 =      -9.2815eV
 LUMO      5.2     0.189443 =       5.1550eV
 LUMO-HOMO         0.530531 =      14.4365eV


 **********************************************************************************************************************************
 DATASETS  * FILE   NREC   LENGTH (MB)   RECORD NAMES
              1      18       30.52       500      610      700      900      950      970     1000      129      960     1100   
                                          VAR    BASINP    GEOM    SYMINP    ZMAT    AOBASIS   BASIS     P2S    ABASIS      S 
                                         1400     1410     1200     1210     1080     1600     1650     1700   
                                           T        V       H0       H01     AOSYM     SMH    MOLCAS    OPER   

              2       4        3.17       700     1000      520     2100   
                                         GEOM     BASIS   MCVARS     RHF  

 PROGRAMS   *        TOTAL    HF-SCF       INT
 CPU TIMES  *         0.92      0.18      0.61
 REAL TIME  *         1.08 SEC
 DISK USED  *        34.27 MB (local),      451.23 MB (total)
 SF USED    *         0.03 MB
 GA USED    *         0.00 MB       (max)       0.00 MB       (current)
 **********************************************************************************************************************************


 PROGRAM * MP2 (Closed-shell)     Authors: C. Hampel, H.-J. Werner, 1991, M. Deegan, P.J. Knowles, 1992


 Convergence thresholds:  THRVAR = 1.00D-08  THRDEN = 1.00D-06

 Number of core orbitals:           5 (   5   0 )
 Number of closed-shell orbitals:  15 (  11   4 )
 Number of external orbitals:     100 (  65  35 )

 Molecular orbitals read from record     2100.2  Type=RHF/CANONICAL (state 1.1)

 Number of N-1 electron functions:              15
 Number of N-2 electron functions:             120
 Number of singly external CSFs:               855
 Number of doubly external CSFs:            574275
 Total number of CSFs:                      575131

 Length of J-op  integral file:               0.00 MB
 Length of K-op  integral file:               0.55 MB

 Integral transformation finished. Total CPU:   0.06 sec, npass=  1  Memory used:   1.01 MW

 Memory needed for MP2:                      0.04 MW

 SCS-MP2 correlation energy:           -0.711618506850   (PS=  1.200000  PT=  0.333333)
 SCS-MP2 total energy:               -195.870327505515


  Reference energy                   -195.158708998665
  MP2 singlet pair energy              -0.469758979561
  MP2 triplet pair energy              -0.237708853998
  MP2 correlation energy               -0.707467833559

 !MP2 total energy                   -195.866176832224


 **********************************************************************************************************************************
 DATASETS  * FILE   NREC   LENGTH (MB)   RECORD NAMES
              1      19       41.40       500      610      700      900      950      970     1000      129      960     1100   
                                          VAR    BASINP    GEOM    SYMINP    ZMAT    AOBASIS   BASIS     P2S    ABASIS      S 
                                         1400     1410     1200     1210     1080     1600     1650     1700     1380   
                                           T        V       H0       H01     AOSYM     SMH    MOLCAS    OPER     JKOP   

              2       4        3.17       700     1000      520     2100   
                                         GEOM     BASIS   MCVARS     RHF  

 PROGRAMS   *        TOTAL       MP2    HF-SCF       INT
 CPU TIMES  *         1.01      0.09      0.18      0.61
 REAL TIME  *         1.21 SEC
 DISK USED  *        44.62 MB (local),      534.03 MB (total)
 SF USED    *        23.90 MB
 GA USED    *         0.00 MB       (max)       0.00 MB       (current)
 **********************************************************************************************************************************
 Molecular orbitals read from record     2100.2  Type=RHF/CANONICAL (state 1.1)
 Occupation numbers read from record     2100.2  Type=RHF/RHF (state 1.1)
 Orbital energies read from record       2100.2  Type=RHF/CANONICAL (state 1.1)
 Redundancy group numbers read from rec  2100.2  Type=RHF/RHF (state 1.1)

 MP2/6-31G(D,P) energy=   -195.866176832224

             MP2          HF-SCF
   -195.86617683   -195.15870900
 **********************************************************************************************************************************
 Molpro calculation terminated
