
 Primary working directories    : /home/lcc09/tmp/molpro/molpro.aBkDIKRkTj
 Secondary working directories  : /home/lcc09/tmp/molpro/molpro.aBkDIKRkTj
 Wavefunction directory         : /root/wfu/
 Main file repository           : /home/lcc09/tmp/molpro/molpro.aBkDIKRkTj/

 id        : scuxyl

 Nodes                nprocs
 localhost.localdomain    8

 Using customized tuning parameters: mindgm=1; mindgv=20; mindgc=4; mindgr=1; noblas=0; minvec=7
 default implementation of scratch files=sf  


 Variables initialized (934), CPU time= 0.00 sec
 ***,CCCC
 
 memory,80,m
 geometry={
 C        0.704307        1.834623        0.000000
 C        0.704307        0.303717        0.000000
 C       -0.704307       -0.303717        0.000000
 C       -0.704307       -1.834623        0.000000
 H        1.722766        2.236787        0.000000
 H        0.190942        2.231360        0.883793
 H        0.190942        2.231360       -0.883793
 H        1.254723       -0.063802        0.877208
 H        1.254723       -0.063802       -0.877208
 H       -1.254723        0.063802       -0.877208
 H       -1.254723        0.063802        0.877208
 H       -0.190942       -2.231360       -0.883793
 H       -1.722766       -2.236787        0.000000
 H       -0.190942       -2.231360        0.883793
 }
 
 basis=6-31g(d,p)
 {hf;wf,34,spin,0,state,1}
 mp2
 Commands  initialized (763), CPU time= 0.02 sec, 617 directives.
 Default parameters read. Elapsed time= 0.06 sec

 Checking input...
 Passed
1


                                         ***  PROGRAM SYSTEM MOLPRO  ***
                                       Copyright, TTI GmbH Stuttgart, 2015
                                    Version 2019.2 linked Jun  8 2019 11:26:33


 **********************************************************************************************************************************
 LABEL *   CCCC                                                                          
  64 bit mpp version                                                                     DATE: 11-Nov-22          TIME: 07:33:27  
 **********************************************************************************************************************************

 SHA1:             8135a10abc80eafa5b3ae28ffc55be4890dc4c84
 **********************************************************************************************************************************

Geometry recognized as XYZ


 Variable memory set to   80000000 words,  buffer space 

 SETTING BASIS          =    6-31G(D,P)


 Recomputing integrals since basis changed


 Using spherical harmonics

 Library entry C      S 6-31G                selected for orbital group  1
 Library entry C      P 6-31G                selected for orbital group  1
 Library entry C      D 6-31G*               selected for orbital group  1
 Library entry H      S 6-31G                selected for orbital group  2
 Library entry H      P 6-31G**              selected for orbital group  2


 PROGRAM * SEWARD (Integral evaluation for generally contracted gaussian basis sets)     Author: Roland Lindh, 1990

 Geometry written to block  1 of record 700


 Point group  C2h 



 ATOMIC COORDINATES

 NR  ATOM    CHARGE       X              Y              Z

   1  C       6.00    1.330947338    3.466935012    0.000000000
   2  C       6.00   -1.330947338   -3.466935012    0.000000000
   3  C       6.00    1.330947338    0.573941949    0.000000000
   4  C       6.00   -1.330947338   -0.573941949    0.000000000
   5  H       1.00    3.255555917    4.226914829    0.000000000
   6  H       1.00   -3.255555917   -4.226914829    0.000000000
   7  H       1.00    0.360828086    4.216659285    1.670126721
   8  H       1.00    0.360828086    4.216659285   -1.670126721
   9  H       1.00   -0.360828086   -4.216659285   -1.670126721
  10  H       1.00   -0.360828086   -4.216659285    1.670126721
  11  H       1.00    2.371082832   -0.120568306    1.657682874
  12  H       1.00    2.371082832   -0.120568306   -1.657682874
  13  H       1.00   -2.371082832    0.120568306   -1.657682874
  14  H       1.00   -2.371082832    0.120568306    1.657682874

 Bond lengths in Bohr (Angstrom)

 1-3  2.892993062  1-5  2.069223890  1-7  2.071844857  1-8  2.071844857  2-4  2.892993062
     ( 1.530906000)     ( 1.094986127)     ( 1.096373083)     ( 1.096373083)     ( 1.530906000)

  2- 6  2.069223890   2- 9  2.071844857   2-10  2.071844857   3- 4  2.898848169   3-11  2.076569010
       ( 1.094986127)       ( 1.096373083)       ( 1.096373083)       ( 1.534004389)       ( 1.098872997)

  3-12  2.076569010   4-13  2.076569010   4-14  2.076569010
       ( 1.098872997)       ( 1.098872997)       ( 1.098872997)

 Bond angles

  1- 3- 4  113.32706514   1- 3-11  109.53914745   1- 3-12  109.53914745   2- 4- 3  113.32706514

  2- 4-13  109.53914745   2- 4-14  109.53914745   3- 1- 5  111.54782443   3- 1- 7  111.21466163

  3- 1- 8  111.21466163   3- 4-13  109.11787042   3- 4-14  109.11787042   4- 2- 6  111.54782443

  4- 2- 9  111.21466163   4- 2-10  111.21466163   4- 3-11  109.11787042   4- 3-12  109.11787042

  5- 1- 7  107.61446002   5- 1- 8  107.61446002   6- 2- 9  107.61446002   6- 2-10  107.61446002

  7- 1- 8  107.43442057   9- 2-10  107.43442057  11- 3-12  105.93227567  13- 4-14  105.93227567

 NUCLEAR CHARGE:                   34
 NUMBER OF PRIMITIVE AOS:         182
 NUMBER OF SYMMETRY AOS:          178
 NUMBER OF CONTRACTIONS:          106   (   34Ag  +   19Au  +   34Bu  +   19Bg  )
 NUMBER OF CORE ORBITALS:           4   (    2Ag  +    0Au  +    2Bu  +    0Bg  )
 NUMBER OF VALENCE ORBITALS:       26   (    9Ag  +    4Au  +    9Bu  +    4Bg  )


 NUCLEAR REPULSION ENERGY  130.19271555

 Eigenvalues of metric

         1 0.867E-02 0.283E-01 0.325E-01 0.537E-01 0.147E+00 0.167E+00 0.178E+00 0.223E+00
         2 0.471E-01 0.684E-01 0.174E+00 0.177E+00 0.250E+00 0.463E+00 0.545E+00 0.626E+00
         3 0.497E-02 0.142E-01 0.342E-01 0.383E-01 0.635E-01 0.176E+00 0.201E+00 0.214E+00
         4 0.224E-01 0.551E-01 0.175E+00 0.185E+00 0.236E+00 0.372E+00 0.535E+00 0.574E+00


 Contracted 2-electron integrals neglected if value below      1.0D-11
 AO integral compression algorithm  1   Integral accuracy      1.0D-11

     23.331 MB (compressed) written to integral file ( 54.9%)

     Node minimum: 1.835 MB, node maximum: 4.194 MB


 NUMBER OF SORTED TWO-ELECTRON INTEGRALS:     516339.     BUFFER LENGTH:  32768
 NUMBER OF SEGMENTS:   1  SEGMENT LENGTH:     516339      RECORD LENGTH: 524288

 Memory used in sort:       1.07 MW

 SORT1 READ     5313584. AND WROTE      514928. INTEGRALS IN      2 RECORDS. CPU TIME:     0.13 SEC, REAL TIME:     0.14 SEC
 SORT2 READ     4158536. AND WROTE     4169833. INTEGRALS IN     96 RECORDS. CPU TIME:     0.03 SEC, REAL TIME:     0.03 SEC

 Node minimum:      514207.  Node maximum:      525213. integrals

 OPERATOR DM      FOR CENTER  0  COORDINATES:    0.000000    0.000000    0.000000


 **********************************************************************************************************************************
 DATASETS  * FILE   NREC   LENGTH (MB)   RECORD NAMES
              1      18       30.31       500      610      700      900      950      970     1000      129      960     1100   
                                          VAR    BASINP    GEOM    SYMINP    ZMAT    AOBASIS   BASIS     P2S    ABASIS      S 
                                         1400     1410     1200     1210     1080     1600     1650     1700   
                                           T        V       H0       H01     AOSYM     SMH    MOLCAS    OPER   

 PROGRAMS   *        TOTAL       INT
 CPU TIMES  *         0.55      0.42
 REAL TIME  *         0.66 SEC
 DISK USED  *        30.83 MB (local),      332.92 MB (total)
 GA USED    *         0.00 MB       (max)       0.00 MB       (current)
 **********************************************************************************************************************************


 PROGRAM * RHF-SCF (CLOSED SHELL)       Authors: W. Meyer, H.-J. Werner


 NUMBER OF ELECTRONS:      17+   17-
 CONVERGENCE THRESHOLDS:    1.00E-05 (Density)    1.00E-07 (Energy)
 MAX. NUMBER OF ITERATIONS:       60
 INTERPOLATION TYPE:            DIIS
 INTERPOLATION STEPS:              2 (START)      1 (STEP)
 LEVEL SHIFTS:                  0.00 (CLOSED)  0.00 (OPEN) 



 Orbital guess generated from atomic densities. Full valence occupancy:   11   4  11   4

 Molecular orbital dump at record        2100.2

 Initial occupancy:   7   2   6   2

 ITERATION    DDIFF          GRAD             ENERGY        2-EL.EN.            DIPOLE MOMENTS         DIIS   ORB.
    1      0.000D+00      0.000D+00      -157.25123823    365.633205    0.00000    0.00000    0.00000    0    start
    2      0.000D+00      0.968D-02      -157.30531810    360.352408    0.00000    0.00000    0.00000    1    diag
    3      0.987D-02      0.386D-02      -157.31227142    362.257892    0.00000    0.00000    0.00000    2    diag
    4      0.321D-02      0.101D-02      -157.31312648    361.872017    0.00000    0.00000    0.00000    3    diag
    5      0.157D-02      0.139D-03      -157.31313939    361.881818    0.00000    0.00000    0.00000    4    diag
    6      0.221D-03      0.461D-04      -157.31314065    361.879491    0.00000    0.00000    0.00000    5    diag
    7      0.678D-04      0.437D-05      -157.31314067    361.879460    0.00000    0.00000    0.00000    6    diag
    8      0.101D-04      0.854D-06      -157.31314067    361.879471    0.00000    0.00000    0.00000    7    diag
    9      0.218D-05      0.149D-06      -157.31314067    361.879476    0.00000    0.00000    0.00000    0    orth

 Final occupancy:   7   2   6   2

 !RHF STATE  1.1 Energy              -157.313140667413
 Nuclear energy                       130.19271555
 One-electron energy                 -468.44559429
 Two-electron energy                  180.93973808
 Virial quotient                       -1.00081174
 !RHF STATE  1.1 Dipole moment          0.00000000     0.00000000     0.00000000
 Dipole moment /Debye                   0.00000000     0.00000000     0.00000000

 Orbital energies:

         1.1          2.1          3.1          4.1          5.1          6.1          7.1          8.1          9.1
    -11.216887   -11.211511    -1.066499    -0.859411    -0.581252    -0.467784    -0.454767     0.231583     0.319257

         1.2          2.2          3.2          4.2
     -0.633801    -0.492291     0.282250     0.349909

         1.3          2.3          3.3          4.3          5.3          6.3          7.3          8.3
    -11.216316   -11.211508    -0.978114    -0.785573    -0.572356    -0.512620     0.260192     0.292027

         1.4          2.4          3.4          4.4
     -0.564238    -0.458131     0.338293     0.349275


 HOMO      7.1    -0.454767 =     -12.3749eV
 LUMO      8.1     0.231583 =       6.3017eV
 LUMO-HOMO         0.686351 =      18.6766eV


 **********************************************************************************************************************************
 DATASETS  * FILE   NREC   LENGTH (MB)   RECORD NAMES
              1      18       30.31       500      610      700      900      950      970     1000      129      960     1100   
                                          VAR    BASINP    GEOM    SYMINP    ZMAT    AOBASIS   BASIS     P2S    ABASIS      S 
                                         1400     1410     1200     1210     1080     1600     1650     1700   
                                           T        V       H0       H01     AOSYM     SMH    MOLCAS    OPER   

              2       4        3.05       700     1000      520     2100   
                                         GEOM     BASIS   MCVARS     RHF  

 PROGRAMS   *        TOTAL    HF-SCF       INT
 CPU TIMES  *         0.69      0.14      0.42
 REAL TIME  *         0.82 SEC
 DISK USED  *        33.62 MB (local),      355.22 MB (total)
 SF USED    *         0.01 MB
 GA USED    *         0.00 MB       (max)       0.00 MB       (current)
 **********************************************************************************************************************************


 PROGRAM * MP2 (Closed-shell)     Authors: C. Hampel, H.-J. Werner, 1991, M. Deegan, P.J. Knowles, 1992


 Convergence thresholds:  THRVAR = 1.00D-08  THRDEN = 1.00D-06

 Number of core orbitals:           4 (   2   0   2   0 )
 Number of closed-shell orbitals:  13 (   5   2   4   2 )
 Number of external orbitals:      89 (  27  17  28  17 )

 Molecular orbitals read from record     2100.2  Type=RHF/CANONICAL (state 1.1)

 Number of N-1 electron functions:              13
 Number of N-2 electron functions:              91
 Number of singly external CSFs:               315
 Number of doubly external CSFs:            169288
 Total number of CSFs:                      169604

 Length of J-op  integral file:               0.00 MB
 Length of K-op  integral file:               0.21 MB

 Integral transformation finished. Total CPU:   0.02 sec, npass=  1  Memory used:   0.33 MW

 Memory needed for MP2:                      0.02 MW

 SCS-MP2 correlation energy:           -0.597492811522   (PS=  1.200000  PT=  0.333333)
 SCS-MP2 total energy:               -157.910633478935


  Reference energy                   -157.313140667413
  MP2 singlet pair energy              -0.399971081127
  MP2 triplet pair energy              -0.188883504915
  MP2 correlation energy               -0.588854586042

 !MP2 total energy                   -157.901995253455


 **********************************************************************************************************************************
 DATASETS  * FILE   NREC   LENGTH (MB)   RECORD NAMES
              1      19       33.56       500      610      700      900      950      970     1000      129      960     1100   
                                          VAR    BASINP    GEOM    SYMINP    ZMAT    AOBASIS   BASIS     P2S    ABASIS      S 
                                         1400     1410     1200     1210     1080     1600     1650     1700     1380   
                                           T        V       H0       H01     AOSYM     SMH    MOLCAS    OPER     JKOP   

              2       4        3.05       700     1000      520     2100   
                                         GEOM     BASIS   MCVARS     RHF  

 PROGRAMS   *        TOTAL       MP2    HF-SCF       INT
 CPU TIMES  *         0.75      0.05      0.14      0.42
 REAL TIME  *         0.90 SEC
 DISK USED  *        36.66 MB (local),      379.57 MB (total)
 SF USED    *         7.19 MB
 GA USED    *         0.00 MB       (max)       0.00 MB       (current)
 **********************************************************************************************************************************
 Molecular orbitals read from record     2100.2  Type=RHF/CANONICAL (state 1.1)
 Occupation numbers read from record     2100.2  Type=RHF/RHF (state 1.1)
 Orbital energies read from record       2100.2  Type=RHF/CANONICAL (state 1.1)
 Redundancy group numbers read from rec  2100.2  Type=RHF/RHF (state 1.1)

 MP2/6-31G(D,P) energy=   -157.901995253455

             MP2          HF-SCF
   -157.90199525   -157.31314067
 **********************************************************************************************************************************
 Molpro calculation terminated
