
 Primary working directories    : /home/lcc09/tmp/molpro/molpro.0L6TAdOQaE
 Secondary working directories  : /home/lcc09/tmp/molpro/molpro.0L6TAdOQaE
 Wavefunction directory         : /root/wfu/
 Main file repository           : /home/lcc09/tmp/molpro/molpro.0L6TAdOQaE/

 id        : scuxyl

 Nodes                nprocs
 localhost.localdomain    8

 Using customized tuning parameters: mindgm=1; mindgv=20; mindgc=4; mindgr=1; noblas=0; minvec=7
 default implementation of scratch files=sf  


 Variables initialized (934), CPU time= 0.01 sec
 ***,cis-CC=CC
 
 memory,80,m
 geometry={
 C       -0.000000        1.592105       -0.521732
 C       -0.000000        0.668913        0.663839
 C       -0.000000       -0.668913        0.663839
 C       -0.000000       -1.592105       -0.521732
 H        0.000000        1.060578       -1.476099
 H        0.878899        2.249172       -0.504740
 H       -0.878899        2.249172       -0.504740
 H       -0.000000        1.168113        1.632931
 H       -0.000000       -1.168113        1.632931
 H       -0.000000       -1.060578       -1.476099
 H        0.878899       -2.249172       -0.504740
 H       -0.878899       -2.249172       -0.504740
 }
 
 basis=6-31g(d,p)
 {hf;wf,32,spin,0,state,1}
 mp2
 Commands  initialized (763), CPU time= 0.01 sec, 617 directives.
 Default parameters read. Elapsed time= 0.07 sec

 Checking input...
 Passed
1


                                         ***  PROGRAM SYSTEM MOLPRO  ***
                                       Copyright, TTI GmbH Stuttgart, 2015
                                    Version 2019.2 linked Jun  8 2019 11:26:33


 **********************************************************************************************************************************
 LABEL *   cis-CC=CC                                                                     
  64 bit mpp version                                                                     DATE: 11-Nov-22          TIME: 07:20:36  
 **********************************************************************************************************************************

 SHA1:             8135a10abc80eafa5b3ae28ffc55be4890dc4c84
 **********************************************************************************************************************************

Geometry recognized as XYZ


 Variable memory set to   80000000 words,  buffer space 

 SETTING BASIS          =    6-31G(D,P)


 Recomputing integrals since basis changed


 Using spherical harmonics

 Library entry C      S 6-31G                selected for orbital group  1
 Library entry C      P 6-31G                selected for orbital group  1
 Library entry C      D 6-31G*               selected for orbital group  1
 Library entry H      S 6-31G                selected for orbital group  2
 Library entry H      P 6-31G**              selected for orbital group  2


 PROGRAM * SEWARD (Integral evaluation for generally contracted gaussian basis sets)     Author: Roland Lindh, 1990

 Geometry written to block  1 of record 700


 Point group  C2v 



 ATOMIC COORDINATES

 NR  ATOM    CHARGE       X              Y              Z

   1  C       6.00    0.000000000    3.008642412   -0.985930590
   2  C       6.00    0.000000000   -3.008642412   -0.985930590
   3  C       6.00    0.000000000    1.264062371    1.254473901
   4  C       6.00    0.000000000   -1.264062371    1.254473901
   5  H       1.00    0.000000000    2.004201954   -2.789422843
   6  H       1.00    0.000000000   -2.004201954   -2.789422843
   7  H       1.00    1.660878401    4.250319087   -0.953820364
   8  H       1.00   -1.660878401    4.250319087   -0.953820364
   9  H       1.00    1.660878401   -4.250319087   -0.953820364
  10  H       1.00   -1.660878401   -4.250319087   -0.953820364
  11  H       1.00    0.000000000    2.207413653    3.085792370
  12  H       1.00    0.000000000   -2.207413653    3.085792370

 Bond lengths in Bohr (Angstrom)

 1-3  2.839537251  1-5  2.064336440  1-7  2.073959763  1-8  2.073959763  2-4  2.839537251
     ( 1.502618403)     ( 1.092399800)     ( 1.097492243)     ( 1.097492243)     ( 1.502618403)

  2- 6  2.064336440   2- 9  2.073959763   2-10  2.073959763   3- 4  2.528124742   3-11  2.060009460
       ( 1.092399800)       ( 1.097492243)       ( 1.097492243)       ( 1.337826000)       ( 1.090110061)

  4-12  2.060009460
       ( 1.090110061)

 Bond angles

  1- 3- 4  127.90752681   1- 3-11  114.83850972   2- 4- 3  127.90752681   2- 4-12  114.83850972

  3- 1- 5  112.97720565   3- 1- 7  110.83131933   3- 1- 8  110.83131933   3- 4-12  117.25396346

  4- 2- 6  112.97720565   4- 2- 9  110.83131933   4- 2-10  110.83131933   4- 3-11  117.25396346

  5- 1- 7  107.74817118   5- 1- 8  107.74817118   6- 2- 9  107.74817118   6- 2-10  107.74817118

  7- 1- 8  106.41787358   9- 2-10  106.41787358

 NUCLEAR CHARGE:                   32
 NUMBER OF PRIMITIVE AOS:         168
 NUMBER OF SYMMETRY AOS:          164
 NUMBER OF CONTRACTIONS:           96   (   33A1  +   15B1  +   33B2  +   15A2  )
 NUMBER OF CORE ORBITALS:           4   (    2A1  +    0B1  +    2B2  +    0A2  )
 NUMBER OF VALENCE ORBITALS:       24   (    9A1  +    3B1  +    9B2  +    3A2  )


 NUCLEAR REPULSION ENERGY  117.25132145

 Eigenvalues of metric

         1 0.981E-02 0.290E-01 0.405E-01 0.651E-01 0.162E+00 0.177E+00 0.209E+00 0.215E+00
         2 0.595E-01 0.178E+00 0.285E+00 0.512E+00 0.563E+00 0.678E+00 0.718E+00 0.984E+00
         3 0.328E-02 0.460E-02 0.197E-01 0.235E-01 0.523E-01 0.148E+00 0.167E+00 0.176E+00
         4 0.469E-01 0.143E+00 0.180E+00 0.383E+00 0.518E+00 0.590E+00 0.628E+00 0.712E+00


 Contracted 2-electron integrals neglected if value below      1.0D-11
 AO integral compression algorithm  1   Integral accuracy      1.0D-11

     15.991 MB (compressed) written to integral file ( 57.5%)

     Node minimum: 1.311 MB, node maximum: 2.621 MB


 NUMBER OF SORTED TWO-ELECTRON INTEGRALS:     357895.     BUFFER LENGTH:  32768
 NUMBER OF SEGMENTS:   1  SEGMENT LENGTH:     357895      RECORD LENGTH: 524288

 Memory used in sort:       0.91 MW

 SORT1 READ     3611960. AND WROTE      352495. INTEGRALS IN      2 RECORDS. CPU TIME:     0.11 SEC, REAL TIME:     0.11 SEC
 SORT2 READ     2818968. AND WROTE     2860080. INTEGRALS IN     72 RECORDS. CPU TIME:     0.02 SEC, REAL TIME:     0.03 SEC

 Node minimum:      356240.  Node maximum:      359870. integrals

 OPERATOR DM      FOR CENTER  0  COORDINATES:    0.000000    0.000000    0.000000


 **********************************************************************************************************************************
 DATASETS  * FILE   NREC   LENGTH (MB)   RECORD NAMES
              1      18       30.26       500      610      700      900      950      970     1000      129      960     1100   
                                          VAR    BASINP    GEOM    SYMINP    ZMAT    AOBASIS   BASIS     P2S    ABASIS      S 
                                         1400     1410     1200     1210     1080     1600     1650     1700   
                                           T        V       H0       H01     AOSYM     SMH    MOLCAS    OPER   

 PROGRAMS   *        TOTAL       INT
 CPU TIMES  *         0.51      0.37
 REAL TIME  *         0.61 SEC
 DISK USED  *        30.74 MB (local),      326.44 MB (total)
 GA USED    *         0.00 MB       (max)       0.00 MB       (current)
 **********************************************************************************************************************************


 PROGRAM * RHF-SCF (CLOSED SHELL)       Authors: W. Meyer, H.-J. Werner


 NUMBER OF ELECTRONS:      16+   16-
 CONVERGENCE THRESHOLDS:    1.00E-05 (Density)    1.00E-07 (Energy)
 MAX. NUMBER OF ITERATIONS:       60
 INTERPOLATION TYPE:            DIIS
 INTERPOLATION STEPS:              2 (START)      1 (STEP)
 LEVEL SHIFTS:                  0.00 (CLOSED)  0.00 (OPEN) 



 Orbital guess generated from atomic densities. Full valence occupancy:   11   3  11   3

 Molecular orbital dump at record        2100.2

 Initial occupancy:   7   2   6   1

 ITERATION    DDIFF          GRAD             ENERGY        2-EL.EN.            DIPOLE MOMENTS         DIIS   ORB.
    1      0.000D+00      0.000D+00      -156.06001960    339.334974    0.00000    0.00000   -0.19165    0    start
    2      0.000D+00      0.980D-02      -156.11259579    334.512866    0.00000    0.00000   -0.06879    1    diag
    3      0.104D-01      0.381D-02      -156.11903832    336.198347    0.00000    0.00000   -0.05847    2    diag
    4      0.393D-02      0.994D-03      -156.11985689    335.905081    0.00000    0.00000   -0.06017    3    diag
    5      0.176D-02      0.112D-03      -156.11986876    335.906903    0.00000    0.00000   -0.06120    4    diag
    6      0.300D-03      0.215D-04      -156.11986911    335.907532    0.00000    0.00000   -0.06191    5    diag
    7      0.448D-04      0.563D-05      -156.11986913    335.907564    0.00000    0.00000   -0.06216    6    diag
    8      0.825D-05      0.161D-05      -156.11986913    335.907556    0.00000    0.00000   -0.06219    0    orth

 Final occupancy:   7   2   6   1

 !RHF STATE  1.1 Energy              -156.119869130655
 Nuclear energy                       117.25132145
 One-electron energy                 -441.32496861
 Two-electron energy                  167.95377803
 Virial quotient                       -1.00099744
 !RHF STATE  1.1 Dipole moment          0.00000000     0.00000000    -0.06218540
 Dipole moment /Debye                   0.00000000     0.00000000    -0.15804917

 Orbital energies:

         1.1          2.1          3.1          4.1          5.1          6.1          7.1          8.1          9.1
    -11.223498   -11.218464    -1.071207    -0.889873    -0.646457    -0.565696    -0.508283     0.242561     0.265281

         1.2          2.2          3.2          4.2
     -0.567521    -0.337358     0.315832     0.726967

         1.3          2.3          3.3          4.3          5.3          6.3          7.3          8.3
    -11.221911   -11.218463    -0.974876    -0.716851    -0.532095    -0.467646     0.287273     0.341667

         1.4          2.4          3.4
     -0.548508     0.195156     0.344685


 HOMO      2.2    -0.337358 =      -9.1800eV
 LUMO      2.4     0.195156 =       5.3105eV
 LUMO-HOMO         0.532513 =      14.4904eV


 **********************************************************************************************************************************
 DATASETS  * FILE   NREC   LENGTH (MB)   RECORD NAMES
              1      18       30.26       500      610      700      900      950      970     1000      129      960     1100   
                                          VAR    BASINP    GEOM    SYMINP    ZMAT    AOBASIS   BASIS     P2S    ABASIS      S 
                                         1400     1410     1200     1210     1080     1600     1650     1700   
                                           T        V       H0       H01     AOSYM     SMH    MOLCAS    OPER   

              2       4        3.00       700     1000      520     2100   
                                         GEOM     BASIS   MCVARS     RHF  

 PROGRAMS   *        TOTAL    HF-SCF       INT
 CPU TIMES  *         0.66      0.14      0.37
 REAL TIME  *         0.78 SEC
 DISK USED  *        33.48 MB (local),      348.35 MB (total)
 SF USED    *         0.01 MB
 GA USED    *         0.00 MB       (max)       0.00 MB       (current)
 **********************************************************************************************************************************


 PROGRAM * MP2 (Closed-shell)     Authors: C. Hampel, H.-J. Werner, 1991, M. Deegan, P.J. Knowles, 1992


 Convergence thresholds:  THRVAR = 1.00D-08  THRDEN = 1.00D-06

 Number of core orbitals:           4 (   2   0   2   0 )
 Number of closed-shell orbitals:  12 (   5   2   4   1 )
 Number of external orbitals:      80 (  26  13  27  14 )

 Molecular orbitals read from record     2100.2  Type=RHF/CANONICAL (state 1.1)

 Number of N-1 electron functions:              12
 Number of N-2 electron functions:              78
 Number of singly external CSFs:               278
 Number of doubly external CSFs:            118724
 Total number of CSFs:                      119003

 Length of J-op  integral file:               0.00 MB
 Length of K-op  integral file:               0.18 MB

 Integral transformation finished. Total CPU:   0.01 sec, npass=  1  Memory used:   0.24 MW

 Memory needed for MP2:                      0.01 MW

 SCS-MP2 correlation energy:           -0.566772264755   (PS=  1.200000  PT=  0.333333)
 SCS-MP2 total energy:               -156.686641395410


  Reference energy                   -156.119869130655
  MP2 singlet pair energy              -0.375261694494
  MP2 triplet pair energy              -0.187165014690
  MP2 correlation energy               -0.562426709184

 !MP2 total energy                   -156.682295839838


 **********************************************************************************************************************************
 DATASETS  * FILE   NREC   LENGTH (MB)   RECORD NAMES
              1      19       32.57       500      610      700      900      950      970     1000      129      960     1100   
                                          VAR    BASINP    GEOM    SYMINP    ZMAT    AOBASIS   BASIS     P2S    ABASIS      S 
                                         1400     1410     1200     1210     1080     1600     1650     1700     1380   
                                           T        V       H0       H01     AOSYM     SMH    MOLCAS    OPER     JKOP   

              2       4        3.00       700     1000      520     2100   
                                         GEOM     BASIS   MCVARS     RHF  

 PROGRAMS   *        TOTAL       MP2    HF-SCF       INT
 CPU TIMES  *         0.72      0.04      0.14      0.37
 REAL TIME  *         0.86 SEC
 DISK USED  *        35.62 MB (local),      365.49 MB (total)
 SF USED    *         5.12 MB
 GA USED    *         0.00 MB       (max)       0.00 MB       (current)
 **********************************************************************************************************************************
 Molecular orbitals read from record     2100.2  Type=RHF/CANONICAL (state 1.1)
 Occupation numbers read from record     2100.2  Type=RHF/RHF (state 1.1)
 Orbital energies read from record       2100.2  Type=RHF/CANONICAL (state 1.1)
 Redundancy group numbers read from rec  2100.2  Type=RHF/RHF (state 1.1)

 MP2/6-31G(D,P) energy=   -156.682295839838

             MP2          HF-SCF
   -156.68229584   -156.11986913
 **********************************************************************************************************************************
 Molpro calculation terminated
