
 Primary working directories    : /home/tmp/molpro/molpro.CfMFvBdaUD
 Secondary working directories  : /home/tmp/molpro/molpro.CfMFvBdaUD
 Wavefunction directory         : /root/wfu/
 Main file repository           : /home/tmp/molpro/molpro.CfMFvBdaUD/

 id        : scuxyl

 Nodes                nprocs
 localhost.localdomain    8

 Using customized tuning parameters: mindgm=1; mindgv=20; mindgc=4; mindgr=1; noblas=0; minvec=7
 default implementation of scratch files=sf  


 Variables initialized (934), CPU time= 0.02 sec
 ***,[CH2]-T
 
 geometry={
 C        0.000000        0.000000        0.175015
 H        0.000000        0.860716       -0.525046
 H        0.000000       -0.860716       -0.525046
 }
 
 basis=vdz
 {hf;wf,8,spin,0,state,1}
 ccsd(t)
 
 basis=vtz
 hf
 ccsd(t)
 
 basis=vqz
 hf
 ccsd(t)
 
 basis=vtz
 hf
 ccsd(t)
 
 basis=vqz
 hf
1.247836
 H        0.876297        0.000000        1.247836
 H        0.000000       -2.168362        0.353598
 H        0.882438       -1.297559       -0.906102
 H       -0.882438       -1.297559       -0.906102
 }
 
 basis=vdz
 {hf;wf,26,spin,0,state,1}
 ccsd(t)
 
 basis=vtz
 hf
 ccsd(t)
 
 basis=vqz
 hf

 Checking input...
 Passed
1


                                         ***  PROGRAM SYSTEM MOLPRO  ***
                                       Copyright, TTI GmbH Stuttgart, 2015
                                    Version 2019.2 linked Jun  8 2019 11:26:33


 **********************************************************************************************************************************
 LABEL *   [CH2]-T                                                                       
  64 bit mpp version                                                                     DATE: 24-Jul-22          TIME: 16:25:08  
 **********************************************************************************************************************************

 SHA1:             8135a10abc80eafa5b3ae28ffc55be4890dc4c84
 **********************************************************************************************************************************

Geometry recognized as XYZ


 Variable memory set to  300000000 words,  buffer space 

 SETTING BASIS          =    VDZ


 Recomputing integrals since basis changed


 Using spherical harmonics

 Library entry C      S cc-pVDZ              selected for orbital group  1
 Library entry C      P cc-pVDZ              selected for orbital group  1
 Library entry C      D cc-pVDZ              selected for orbital group  1
 Library entry H      S cc-pVDZ              selected for orbital group  2
 Library entry H      P cc-pVDZ              selected for orbital group  2


 PROGRAM * SEWARD (Integral evaluation for generally contracted gaussian basis sets)     Author: Roland Lindh, 1990

 Geometry written to block  1 of record 700


 Point group  C2v 



 ATOMIC COORDINATES

 NR  ATOM    CHARGE       X              Y              Z

   1  C       6.00    0.000000000    0.000000000    0.330730418
   2  H       1.00    0.000000000    1.626517511   -0.992193143
   3  H       1.00    0.000000000   -1.626517511   -0.992193143

 Bond lengths in Bohr (Angstrom)

 1-2  2.096589125  1-3  2.096589125
     ( 1.109467186)     ( 1.109467186)

 Bond angles

  2-1-3  101.75382474

 NUCLEAR CHARGE:                    8
 NUMBER OF PRIMITIVE AOS:          41
 NUMBER OF SYMMETRY AOS:           40
 NUMBER OF CONTRACTIONS:           24   (   11A1  +    4B1  +    7B2  +    2A2  )
 NUMBER OF CORE ORBITALS:           1   (    1A1  +    0B1  +    0B2  +    0A2  )
 NUMBER OF VALENCE ORBITALS:        6   (    3A1  +    1B1  +    2B2  +    0A2  )


 NUCLEAR REPULSION ENERGY    6.03098734

 Eigenvalues of metric

         1 0.162E-01 0.499E-01 0.123E+00 0.147E+00 0.365E+00 0.973E+00 0.102E+01 0.124E+01
         2 0.176E+00 0.489E+00 0.121E+01 0.214E+01
         3 0.392E-01 0.661E-01 0.139E+00 0.727E+00 0.107E+01 0.123E+01 0.274E+01
         4 0.511E+00 0.147E+01


 Contracted 2-electron integrals neglected if value below      1.0D-11
2476422   -0.493798664
   2  C       6.00    0.000000000   -2.392476422   -0.493798664
   3  C       6.00    0.000000000    0.000000000    1.120360038
   4  H       1.00    0.000000000    4.097610319    0.668203378
   5  H       1.00    0.000000000   -4.097610319    0.668203378
   6  H       1.00    1.667566142    2.452031140   -1.712284621
   7  H       1.00   -1.667566142    2.452031140   -1.712284621
   8  H       1.00    1.667566142   -2.452031140   -1.712284621
   9  H       1.00   -1.667566142   -2.452031140   -1.712284621
  10  H       1.00   -1.655961334    0.000000000    2.358068288
  11  H       1.00    1.655961334    0.000000000    2.358068288

 Bond lengths in Bohr (Angstrom)

 1-3  2.886078957  1-4  2.063426847  1-6  2.066163505  1-7  2.066163505  2-3  2.886078957
     ( 1.527247213)     ( 1.091918464)     ( 1.093366641)     ( 1.093366641)     ( 1.527247213)

  2- 5  2.063426847   2- 8  2.066163505   2- 9  2.066163505   3-10  2.067396830   3-11  2.067396830
       ( 1.091918464)       ( 1.093366641)       ( 1.093366641)       ( 1.094019288)       ( 1.094019288)

 Bond angles

  1- 3- 2  111.98640601   1- 3-10  109.56258043   1- 3-11  109.56258043   2- 3-10  109.56258043

  2- 3-11  109.56258043   3- 1- 4  111.71984468   3- 1- 6  110.71544122   3- 1- 7  110.71544122

  3-2-5  111.71984468   3-2-8  110.71544122   3-2-9  110.71544122   4-1-6  107.95589492

  4-1-7  107.95589492   5-2-8  107.95589492   5-2-9  107.95589492   6-1-7  107.62387369

  8- 2- 9  107.62387369  10- 3-11  106.44922516

 NUCLEAR CHARGE:                   26
 NUMBER OF PRIMITIVE AOS:         137
 NUMBER OF SYMMETRY AOS:          134
 NUMBER OF CONTRACTIONS:           82   (   30A1  +   17B1  +   23B2  +   12A2  )
 NUMBER OF CORE ORBITALS:           3   (    2A1  +    0B1  +    1B2  +    0A2  )
 NUMBER OF VALENCE ORBITALS:       20   (    8A1  +    4B1  +    6B2  +    2A2  )


 NUCLEAR REPULSION ENERGY   82.63933231

 Eigenvalues of metric

         1 0.382E-02 0.151E-01 0.339E-01 0.365E-01 0.429E-01 0.503E-01 0.575E-01 0.937E-01
         2 0.236E-01 0.356E-01 0.388E-01 0.583E-01 0.114E+00 0.154E+00 0.288E+00 0.423E+00
         3 0.657E-02 0.236E-01 0.299E-01 0.364E-01 0.501E-01 0.812E-01 0.124E+00 0.130E+00
         4 0.336E-01 0.450E-01 0.118E+00 0.263E+00 0.355E+00 0.659E+00 0.911E+00 0.108E+01


 Contracted 2-electron integrals neglected if value below      1.0D-11
 AO integral compression algorithm  1   Integral accuracy      1.0D-11

     2.097 MB (compressed) written to integral file (100.0%)

     Node minimum: 0.262 MB, node maximum: 0.262 MB

al file (100.0%)

     Node minimum: 0.262 MB, node maximum: 0.262 MB


 NUMBER OF SORTED TWO-ELECTRON INTEGRALS:       1490.     BUFFER LENGTH:  32768
 NUMBER OF SEGMENTS:   1  SEGMENT LENGTH:       1490      RECORD LENGTH: 524288

 Memory used in sort:       0.56 MW

 SORT1 READ       19290. AND WROTE        1420. INTEGRALS IN      1 RECORDS. CPU TIME:     0.04 SEC, REAL TIME:     0.06 SEC
 SORT2 READ         373. AND WROTE         373. INTEGRALS IN      8 RECORDS. CPU TIME:     0.01 SEC, REAL TIME:     0.00 SEC

 Node minimum:           0.  Node maximum:         174. integrals
 SORT2 READ       12665. AND WROTE       13826. INTEGRALS IN      8 RECORDS. CPU TIME:     0.00 SEC, REAL TIME:     0.00 SEC

 Node minimum:        1334.  Node maximum:        2260. integrals

 OPERATOR DM      FOR CENTER  0  COORDINATES:    0.000000    0.000000    0.000000


 **********************************************************************************************************************************
 DATASETS  * FILE   NREC   LENGTH (MB)   RECORD NAMES
              1      18       29.98       500      610      700      900      950      970     1000      129      960     1100   
                                          VAR    BASINP    GEOM    SYMINP    ZMAT    AOBASIS   BASIS     P2S    ABASIS      S 
                                         1400     1410     1200     1210     1080     1600     1650     1700   
                                           T        V       H0       H01     AOSYM     SMH    MOLCAS    OPER   

 PROGRAMS   *        TOTAL       INT
 CPU TIMES  *         0.80      0.62
 REAL TIME  *         1.17 SEC
 DISK USED  *        30.28 MB (local),      275.95 MB (total)
 GA USED    *         0.00 MB       (max)       0.00 MB       (current)
 **********************************************************************************************************************************


 PROGRAM * RHF-SCF (CLOSED SHELL)       Authors: W. Meyer, H.-J. Werner


 NUMBER OF ELECTRONS:       4+    4-
 CONVERGENCE THRESHOLDS:    1.00E-05 (Density)    1.00E-07 (Energy)
 MAX. NUMBER OF ITERATIONS:       60
 INTERPOLATION TYPE:            DIIS
 INTERPOLATION STEPS:              2 (START)      1 (STEP)
 LEVEL SHIFTS:                  0.00 (CLOSED)  0.00 (OPEN) 



 Orbital guess generated from atomic densities. Full valence occupancy:    4   1   2   0

 Molecular orbital dump at record        2100.2

 Initial occupancy:   3   0   1   0

 ITERATION    DDIFF          GRAD             ENERGY        2-EL.EN.            DIPOLE MOMENTS         DIIS   ORB.
    1      0.000D+00      0.000D+00       -38.87053616     36.829066    0.00000    0.00000   -0.92219    0    start
 0    start
    2      0.000D+00      0.184D-01        -1.12865966      1.311440    0.00000    0.00000    0.00000    1    diag
    2      0.000D+00      0.156D-01       -38.88069993     37.364956    0.00000    0.00000   -0.79599    1    diag
    3      0.353D-01      0.254D-02       -38.88103560     37.281860    0.00000    0.00000   -0.77525    2    diag
    4      0.588D-02      0.779D-03       -38.88106872     37.302755    0.00000    0.00000   -0.77295    3    diag
    5      0.232D-02      0.163D-03       -38.88107079     37.298355    0.00000    0.00000   -0.77038    4    diag
    6      0.468D-03      0.288D-04       -38.88107087     37.298505    0.00000    0.00000   -0.76980    5    diag
    7      0.121D-03      0.521D-05       -38.88107087     37.298488    0.00000    0.00000   -0.76964    6    diag
!--
 Nuclear energy                         0.71483772
 One-electron energy                   -2.50242686
 Two-electron energy                    0.65888588
 Virial quotient                       -1.02896336
 !RHF STATE  1.1 Dipole moment          0.00000000     0.00000000     0.00000000
 Dipole moment /Debye                   0.00000000     0.00000000     0.00000000

 Orbital energies:

         1.1          2.1          3.1
     -0.592328     0.479387     1.956756

         1.2
      1.292873

         1.3
      1.292873

         1.5          2.5
      0.197387     0.937125

         1.6
      2.043332

         1.7
      2.043332


 HOMO      1.1    -0.592328 =     -16.1181eV
 LUMO      1.5     0.197387 =       5.3712eV
 LUMO-HOMO         0.789715 =      21.4892eV


 **********************************************************************************************************************************
 DATASETS  * FILE   NREC   LENGTH (MB)   RECORD NAMES
              1      18       29.95       500      610      700      900      950      970     1000      129      960     1100   
                                          VAR    BASINP    GEOM    SYMINP    ZMAT    AOBASIS   BASIS     P2S    ABASIS      S 
                                         1400     1410     1200     1210     1080     1600     1650     1700   
                                           T        V       H0       H01     AOSYM     SMH    MOLCAS    OPER   

              2       4        2.76       700     1000      520     2100   
                                         GEOM     BASIS   MCVARS     RHF  

 PROGRAMS   *        TOTAL    HF-SCF       INT
 CPU TIMES  *         0.92      0.16      0.57
 REAL TIME  *         1.35 SEC
 DISK USED  *        32.75 MB (local),      291.63 MB (total)
 SF USED    *         0.00 MB
 GA USED    *         0.00 MB       (max)       0.00 MB       (current)
 **********************************************************************************************************************************
    8      0.272D-04      0.110D-05       -38.88107087     37.298488    0.00000    0.00000   -0.76962    7    diag
    9      0.548D-05      0.150D-06       -38.88107087     37.298488    0.00000    0.00000   -0.76962    0    orth
et="CCSD">
   <!--


 PROGRAM * CCSD (Closed-shell coupled cluster)     Authors: C. Hampel, H.-J. Werner, 1991, M. Deegan, P.J. Knowles, 1992


 Convergence thresholds:  THRVAR = 1.00D-08  THRDEN = 1.00D-06

 CCSD(T)     terms to be evaluated (factor= 1.000)


 Number of closed-shell orbitals:   1 (   1   0   0   0   0   0   0 )
 Number of external orbitals:       9 (   2   1   1   0   3   1   1 )

 Molecular orbitals read from record     2100.2  Type=RHF/CANONICAL (state 1.1)

 Number of N-1 electron functions:               1
 Number of N-2 electron functions:               1
 Number of singly external CSFs:                 2
 Number of doubly external CSFs:                13
 Total number of CSFs:                          16

 Length of J-op  integral file:               0.00 MB
 Length of K-op  integral file:               0.00 MB
 Length of 3-ext integral record:             0.00 MB

 Final occupancy:   3   0   1   0

 !RHF STATE  1.1 Energy               -38.881070870527
 Nuclear energy                         6.03098734
 One-electron energy                  -63.56130205
 Two-electron energy                   18.64924384
 Virial quotient                       -1.00133797
 !RHF STATE  1.1 Dipole moment          0.00000000     0.00000000    -0.76961788
 Dipole moment /Debye                   0.00000000     0.00000000    -1.95604541

 Orbital energies:

         1.1          2.1          3.1          4.1          5.1
    -11.293415    -0.889033    -0.390584     0.195527     0.694754

         1.2          2.2
      0.062874     0.738210

         1.3          2.3          3.3
     -0.558374     0.260607     0.586155

         1.4          2.4
      1.214941     2.008689


 HOMO      3.1    -0.390584 =     -10.6283eV
 LUMO      1.2     0.062874 =       1.7109eV
 LUMO-HOMO         0.453459 =      12.3392eV


 **********************************************************************************************************************************
 DATASETS  * FILE   NREC   LENGTH (MB)   RECORD NAMES
              1      18       29.98       500      610      700      900      950      970     1000      129      960     1100   
                                          VAR    BASINP    GEOM    SYMINP    ZMAT    AOBASIS   BASIS     P2S    ABASIS      S 
                                         1400     1410     1200     1210     1080     1600     1650     1700   
                                           T        V       H0       H01     AOSYM     SMH    MOLCAS    OPER   

              2       4        2.78       700     1000      520     2100   
                                         GEOM     BASIS   MCVARS     RHF  

 PROGRAMS   *        TOTAL    HF-SCF       INT
 CPU TIMES  *         1.01      0.21      0.62
 REAL TIME  *         1.43 SEC
 DISK USED  *        32.82 MB (local),      296.24 MB (total)
 SF USED    *         0.00 MB
 GA USED    *         0.00 MB       (max)       0.00 MB       (current)
 **********************************************************************************************************************************


 PROGRAM * CCSD (Closed-shell coupled cluster)     Authors: C. Hampel, H.-J. Werner, 1991, M. Deegan, P.J. Knowles, 1992


 Convergence thresholds:  THRVAR = 1.00D-08  THRDEN = 1.00D-06

 CCSD(T)     terms to be evaluated (factor= 1.000)


 Number of core orbitals:           1 (   1   0   0   0 )
 Number of closed-shell orbitals:   3 (   2   0   1   0 )
 Number of external orbitals:      20 (   8   4   6   2 )

 Molecular orbitals read from record     2100.2  Type=RHF/CANONICAL (state 1.1)

 Number of N-1 electron functions:               3
 Number of N-2 electron functions:               6
 Number of singly external CSFs:                22
 Number of doubly external CSFs:               554
 Total number of CSFs:                         577

 Length of J-op  integral file:               0.00 MB
 Length of K-op  integral file:               0.01 MB
 Length of 3-ext integral record:             0.00 MB
CSD total energy                    -1.163382496562
 !CCSD(T) total energy                 -1.163382496562

 Timing summary (sec):

 STEP                 CPU(USER)    SYS     CPU(TOT)    WALL
 CCSD iterations         0.03      0.01      0.04      0.06

 Program statistics:

 Available memory in ccsd:               299999995
 Min. memory needed in ccsd:                   382
 Max. memory used in ccsd:                     382
 Max. memory used in cckext:                 33022 ( 7 integral passes)


 Memory could be reduced to 0.07 Mwords without degradation in triples

 Integral transformation finished. Total CPU:   0.00 sec, npass=  1  Memory used:   0.07 MW

 Reference energy:                    -38.88107087

 MP2 singlet pair energy:              -0.08572222
 MP2 triplet pair energy:              -0.02447343
 MP2 correlation energy:               -0.11019564
 MP2 total energy:                    -38.99126651

 SCS-MP2 correlation energy:           -0.11809457   (PS=  1.200000  PT=  0.333333)
 SCS-MP2 total energy:                -38.99916544
1380   
                                           T        V       H0       H01     AOSYM     SMH    MOLCAS    OPER     JKOP   

              2       4        2.76       700     1000      520     2100   
                                         GEOM     BASIS   MCVARS     RHF  

 PROGRAMS   *        TOTAL   CCSD(T)    HF-SCF       INT
 CPU TIMES  *         1.01      0.08      0.16      0.57
 REAL TIME  *         1.47 SEC
 DISK USED  *        32.75 MB (local),      291.64 MB (total)
 SF USED    *         0.00 MB
 GA USED    *         0.00 MB       (max)       0.00 MB       (current)
 **********************************************************************************************************************************

 ITER.      SQ.NORM     CORR.ENERGY   TOTAL ENERGY   ENERGY CHANGE        DEN1      VAR(S)    VAR(P)  DIIS     TIME  TIME/IT
   1      1.05742693    -0.13400308   -39.01507395    -0.02380744    -0.01743165  0.16D-03  0.19D-02  1  1     0.01     0.00
   2      1.06969682    -0.13713865   -39.01820952    -0.00313557    -0.00807065  0.20D-04  0.29D-03  2  2     0.02     0.00
   3      1.07619551    -0.13784737   -39.01891824    -0.00070872    -0.00143285  0.45D-05  0.77D-04  3  3     0.02     0.00
   4      1.08140365    -0.13816441   -39.01923528    -0.00031704    -0.00079235  0.32D-06  0.17D-04  4  4     0.02     0.00
   5      1.08411776    -0.13817647   -39.01924734    -0.00001205    -0.00023776  0.26D-06  0.29D-05  5  5     0.02     0.00
   6      1.08484956    -0.13818644   -39.01925731    -0.00000998    -0.00002334  0.13D-06  0.27D-06  6  6     0.03     0.00
   7      1.08498161    -0.13819090   -39.01926177    -0.00000445    -0.00000479  0.29D-07  0.19D-07  6  1     0.03     0.00
   8      1.08500093    -0.13819032   -39.01926119     0.00000057    -0.00000136  0.48D-08  0.11D-08  6  2     0.03     0.00
   9      1.08499722    -0.13819037   -39.01926124    -0.00000004     0.00000063  0.60D-09  0.21D-09  6  3     0.03     0.00

 Norm of t1 vector:      0.03030928      S-energy:     0.00000029      T1 diagnostic:  0.00874953
                                                                       D1 diagnostic:  0.01932840

 Doubles amplitudes (print threshold =  0.500E-01):

         I         J         SYM. A    SYM. B    A         B      T(IJ, AB)

         1         1         2         2         1         1     -0.05149146
         2         2         2         2         1         1     -0.13863571


 Total CPU time for triples:      0.00 sec


 RESULTS
 =======

  Reference energy                    -38.881070870527
  CCSD singlet pair energy             -0.113561586145
  CCSD triplet pair energy             -0.024629067234
  CCSD correlation energy              -0.138190367039

  Triples (T) contribution             -0.002896503374
  Total correlation energy             -0.141086870413

  CCSD total energy                   -39.019261237566
  CCSD[T] energy                      -39.022187581675
  CCSD-T energy                       -39.022141160704
 !CCSD(T) total energy                -39.022157740939

 Timing summary (sec):

 STEP                 CPU(USER)    SYS     CPU(TOT)    WALL
 CCSD iterations         0.04      0.02      0.06      0.05

 Program statistics:

 Available memory in ccsd:               299999961
 Min. memory needed in ccsd:                  4741
 Max. memory used in ccsd:                    5019
 Max. memory used in cckext:                 37241 ( 9 integral passes)



 **********************************************************************************************************************************
 DATASETS  * FILE   NREC   LENGTH (MB)   RECORD NAMES
              1      19       30.03       500      610      700      900      950      970     1000      129      960     1100   
                                          VAR    BASINP    GEOM    SYMINP    ZMAT    AOBASIS   BASIS     P2S    ABASIS      S 
                                         1400     1410     1200     1210     1080     1600     1650     1700     1380   
                                           T        V       H0       H01     AOSYM     SMH    MOLCAS    OPER     JKOP   

              2       4        2.78       700     1000      520     2100   
                                         GEOM     BASIS   MCVARS     RHF  

 PROGRAMS   *        TOTAL   CCSD(T)    HF-SCF       INT
 CPU TIMES  *         1.10      0.07      0.21      0.62
 REAL TIME  *         1.55 SEC
 DISK USED  *        32.93 MB (local),      296.60 MB (total)
 SF USED    *         0.12 MB
 GA USED    *         0.00 MB       (max)       0.00 MB       (current)
 **********************************************************************************************************************************
 SETTING BASIS          =    VTZ


 Recomputing integrals since basis changed


 Using spherical harmonics

 Library entry C      S cc-pVTZ              selected for orbital group  1
 Library entry C      P cc-pVTZ              selected for orbital group  1
 Library entry C      D cc-pVTZ              selected for orbital group  1
 Library entry C      F cc-pVTZ              selected for orbital group  1
 Library entry H      S cc-pVTZ              selected for orbital group  2
 Library entry H      P cc-pVTZ              selected for orbital group  2
 Library entry H      D cc-pVTZ              selected for orbital group  2


 PROGRAM * SEWARD (Integral evaluation for generally contracted gaussian basis sets)     Author: Roland Lindh, 1990

 Geometry written to block  1 of record 700


 Point group  C2v 



 ATOMIC COORDINATES

 NR  ATOM    CHARGE       X              Y              Z

   1  C       6.00    0.000000000    0.000000000    0.330730418
   2  H       1.00    0.000000000    1.626517511   -0.992193143
   3  H       1.00    0.000000000   -1.626517511   -0.992193143

 Bond lengths in Bohr (Angstrom)

 1-2  2.096589125  1-3  2.096589125
     ( 1.109467186)     ( 1.109467186)

 Bond angles

  2-1-3  101.75382474

 NUCLEAR CHARGE:                    8
 NUMBER OF PRIMITIVE AOS:          81
 NUMBER OF SYMMETRY AOS:           74
 NUMBER OF CONTRACTIONS:           58   (   23A1  +   11B1  +   17B2  +    7A2  )
 NUMBER OF CORE ORBITALS:           1   (    1A1  +    0B1  +    0B2  +    0A2  )
 NUMBER OF VALENCE ORBITALS:        6   (    3A1  +    1B1  +    2B2  +    0A2  )


 NUCLEAR REPULSION ENERGY    6.03098734

 Eigenvalues of metric

         1 0.167E-02 0.563E-02 0.135E-01 0.330E-01 0.668E-01 0.981E-01 0.117E+00 0.288E+00
         2 0.341E-01 0.111E+00 0.272E+00 0.447E+00 0.472E+00 0.598E+00 0.116E+01 0.125E+01
         3 0.223E-02 0.114E-01 0.324E-01 0.461E-01 0.993E-01 0.154E+00 0.258E+00 0.336E+00
         4 0.102E+00 0.330E+00 0.460E+00 0.900E+00 0.126E+01 0.132E+01 0.246E+01


 Contracted 2-electron integrals neglected if value below      1.0D-11
    8      0.191D-04      0.118D-05      -118.27244148    241.256616    0.00000    0.00000    0.02576    7    diag
    9      0.333D-05      0.264D-06      -118.27244148    241.256622    0.00000    0.00000    0.02575    0    orth

 Final occupancy:   6   2   4   1

 !RHF STATE  1.1 Energy              -118.272441484542
 Nuclear energy                        82.63933231
 One-electron energy                 -321.54008470
 Two-electron energy                  120.62831091
 Virial quotient                       -1.00135653
 !RHF STATE  1.1 Dipole moment          0.00000000     0.00000000     0.02574685
 Dipole moment /Debye                   0.00000000     0.00000000     0.06543768

 Orbital energies:

         1.1          2.1          3.1          4.1          5.1          6.1          7.1          8.1
    -11.221692   -11.216154    -1.053234    -0.799462    -0.596589    -0.474159     0.183156     0.233622

         1.2          2.2          3.2          4.2
     -0.622849    -0.466890     0.235171     0.283500

         1.3          2.3          3.3          4.3          5.3          6.3
    -11.216201    -0.924432    -0.547799    -0.473527     0.230290     0.293534

         1.4          2.4          3.4
     -0.528742     0.306489     0.612937


 HOMO      2.2    -0.466890 =     -12.7047eV
 LUMO      7.1     0.183156 =       4.9839eV
 LUMO-HOMO         0.650046 =      17.6887eV


 **********************************************************************************************************************************
 DATASETS  * FILE   NREC   LENGTH (MB)   RECORD NAMES
              1      18       30.21       500      610      700      900      950      970     1000      129      960     1100   
                                          VAR    BASINP    GEOM    SYMINP    ZMAT    AOBASIS   BASIS     P2S    ABASIS      S 
                                         1400     1410     1200     1210     1080     1600     1650     1700   
                                           T        V       H0       H01     AOSYM     SMH    MOLCAS    OPER   

              2       4        2.96       700     1000      520     2100   
                                         GEOM     BASIS   MCVARS     RHF  

 PROGRAMS   *        TOTAL    HF-SCF       INT
 CPU TIMES  *         1.32      0.31      0.81
 REAL TIME  *         1.77 SEC
 DISK USED  *        33.35 MB (local),      308.14 MB (total)
 SF USED    *         0.01 MB
 GA USED    *         0.00 MB       (max)       0.00 MB       (current)
 **********************************************************************************************************************************


 PROGRAM * CCSD (Closed-shell coupled cluster)     Authors: C. Hampel, H.-J. Werner, 1991, M. Deegan, P.J. Knowles, 1992


 Convergen
 SORT1 READ       27440. AND WROTE        1147. INTEGRALS IN      1 RECORDS. CPU TIME:     0.04 SEC, REAL TIME:     0.05 SEC
itals:           3 (   2   0   1   0 )
 Number of closed-shell orbitals:  10 (   4   2   3   1 )
 Number of external orbitals:      69 (  24  15  19  11 )

 Molecular orbitals read from record     2100.2  Type=RHF/CANONICAL (state 1.1)

 Number of N-1 electron functions:              10
 Number of N-2 electron functions:              55
 Number of singly external CSFs:               194
 Number of doubly external CSFs:             60476
 Total number of CSFs:                       60671

 Length of J-op  integral file:               0.00 MB
 Length of K-op  integral file:               0.13 MB
 Length of 3-ext integral record:             0.00 MB
 SORT2 READ       11779. AND WROTE       13015. INTEGRALS IN      8 RECORDS. CPU TIME:     0.01 SEC, REAL TIME:     0.01 SEC

 Node minimum:         795.  Node maximum:        2381. integrals
           -118.27244148

 MP2 singlet pair energy:              -0.30091558
 MP2 triplet pair energy:              -0.14420048
 MP2 correlation energy:               -0.44511607
 MP2 total energy:                   -118.71755755

 SCS-MP2 correlation energy:           -0.45082345   (PS=  1.200000  PT=  0.333333)
 SCS-MP2 total energy:               -118.72326493
1001      129      960     1100   
                                          VAR    BASINP    GEOM    SYMINP    ZMAT    AOBASIS   BASIS     P2S    ABASIS      S 
                                         1400     1410     1200     1210     1080     1600     1650     1700   
                                           T        V       H0       H01     AOSYM     SMH    MOLCAS    OPER   

              2       5        2.77       700     1000      520     2100     1001   
                                         GEOM     BASIS   MCVARS     RHF     BASIS   

 PROGRAMS   *        TOTAL       INT   CCSD(T)    HF-SCF       INT
 CPU TIMES  *         1.37      0.35      0.08      0.16      0.57
 REAL TIME  *         1.94 SEC
 DISK USED  *        32.78 MB (local),      295.99 MB (total)
 SF USED    *         0.00 MB
 GA USED    *         0.00 MB       (max)       0.00 MB       (current)
 **********************************************************************************************************************************


 PROGRAM * RHF-SCF (CLOSED SHELL)       Authors: W. Meyer, H.-J. Werner


 NUMBER OF ELECTRONS:       1+    1-
 CONVERGENCE THRESHOLDS:    1.00E-05 (Density)    1.00E-07 (Energy)
 MAX. NUMBER OF ITERATIONS:       60
 INTERPOLATION TYPE:            DIIS
 INTERPOLATION STEPS:              2 (START)      1 (STEP)
 LEVEL SHIFTS:                  0.00 (CLOSED)  0.00 (OPEN) 



 Molecular orbitals read from record     2100.2  Type=RHF/CANONICAL (state 1.1)

 Present basis size:        7    3    3    1    7    3    3    1
 Previous basis size:       3    1    1    0    3    1    1
 Previous occupation:       1    0    0    0    0    0    0
 Previous closed-shells:    1    0    0    0    0    0    0
 Present occupation:        1    0    0    0    0    0    0    0
 Present closed-shells:     1    0    0    0    0    0    0    0
 Wavefunction symmetry:    1   Singlet 

 Orbital overlap <old|new>:  < 1.1| 1.1> = 0.999913


 Molecular orbital dump at record        2101.2

 ITERATION    DDIFF          GRAD             ENERGY        2-EL.EN.            DIPOLE MOMENTS         DIIS   ORB.
    1      0.000D+00      0.000D+00        -1.13161919      1.317236    0.00000    0.00000    0.00000    0    start
 AO integral compression algorithm  1   Integral accuracy      1.0D-11

     3.670 MB (compressed) written to integral file ( 85.2%)

     Node minimum: 0.262 MB, node maximum: 0.524 MB

7529    -0.03323840  0.84D-03  0.29D-02  1  1     0.13     0.03

 NUMBER OF SORTED TWO-ELECTRON INTEGRALS:      48574.     BUFFER LENGTH:  32768
 NUMBER OF SEGMENTS:   1  SEGMENT LENGTH:      48574      RECORD LENGTH: 524288

 Memory used in sort:       0.61 MW
0.00000    0.00000    4    diag

 SORT1 READ      562034. AND WROTE       45541. INTEGRALS IN      1 RECORDS. CPU TIME:     0.05 SEC, REAL TIME:     0.06 SEC
.19382168    -0.49489762  -118.76733910    -0.00014569    -0.00136601  0.23D-05  0.11D-04  3  3     0.21
 Final occupancy:   1   0   0   0   0   0   0   0

 !RHF STATE  1.1 Energy                -1.132965462614
 Nuclear energy                         0.71483772
 One-electron energy                   -2.50639812
 Two-electron energy                    0.65859494
 Virial quotient                       -1.00823476
 !RHF STATE  1.1 Dipole moment          0.00000000     0.00000000     0.00000000
 Dipole moment /Debye                   0.00000000     0.00000000     0.00000000

 Orbital energies:

         1.1          2.1          3.1
     -0.594604     0.305027     1.096559

         1.2          2.2
      0.692682     3.412595

         1.3          2.3
      0.692682     3.412595

         1.4
      3.175406

         1.5          2.5
      0.167219     0.643773

         1.6          2.6
      1.120079     3.893040

         1.7          2.7
      1.120079     3.893040

         1.8
      4.085049


 HOMO      1.1    -0.594604 =     -16.1800eV
 LUMO      1.5     0.167219 =       4.5502eV
 LUMO-HOMO         0.761823 =      20.7303eV


 **********************************************************************************************************************************
 DATASETS  * FILE   NREC   LENGTH (MB)   RECORD NAMES
              1      18       29.96       500      610      700      900      950      970     1001      129      960     1100   
                                          VAR    BASINP    GEOM    SYMINP    ZMAT    AOBASIS   BASIS     P2S    ABASIS      S 
                                         1400     1410     1200     1210     1080     1600     1650     1700   
                                           T        V       H0       H01     AOSYM     SMH    MOLCAS    OPER   

              2       6        5.26       700     1000      520     2100     1001     2101   
                                         GEOM     BASIS   MCVARS     RHF     BASIS     RHF  

 PROGRAMS   *        TOTAL    HF-SCF       INT   CCSD(T)    HF-SCF       INT
 CPU TIMES  *         1.50      0.13      0.35      0.08      0.16      0.57
 REAL TIME  *         2.11 SEC
 DISK USED  *        35.27 MB (local),      315.98 MB (total)
 SF USED    *         0.00 MB
 GA USED    *         0.00 MB       (max)       0.00 MB       (current)
 **********************************************************************************************************************************
 SORT2 READ      366996. AND WROTE      396151. INTEGRALS IN      8 RECORDS. CPU TIME:     0.01 SEC, REAL TIME:     0.01 SEC

 Node minimum:       47751.  Node maximum:       51981. integrals


 PROGRAM * CCSD (Closed-shell coupled cluster)     Authors: C. Hampel, H.-J. Werner, 1991, M. Deegan, P.J. Knowles, 1992


 Convergence thresholds:  THRVAR = 1.00D-08  THRDEN = 1.00D-06

 CCSD(T)     terms to be evaluated (factor= 1.000)


 Number of closed-shell orbitals:   1 (   1   0   0   0   0   0   0   0 )
 Number of external orbitals:      27 (   6   3   3   1   7   3   3   1 )

 Molecular orbitals read from record     2101.2  Type=RHF/CANONICAL (state 1.1)

 Number of N-1 electron functions:               1
 Number of N-2 electron functions:               1
 Number of singly external CSFs:                 6
 Number of doubly external CSFs:                75
 Total number of CSFs:                          82

 Length of J-op  integral file:               0.00 MB
 Length of K-op  integral file:               0.01 MB
 Length of 3-ext integral record:             0.00 MB

 OPERATOR DM      FOR CENTER  0  COORDINATES:    0.000000    0.000000    0.000000


 **********************************************************************************************************************************
 DATASETS  * FILE   NREC   LENGTH (MB)   RECORD NAMES
              1      18       30.02       500      610      700      900      950      970     1001      129      960     1100   
                                          VAR    BASINP    GEOM    SYMINP    ZMAT    AOBASIS   BASIS     P2S    ABASIS      S 
                                         1400     1410     1200     1210     1080     1600     1650     1700   
                                           T        V       H0       H01     AOSYM     SMH    MOLCAS    OPER   

              2       5        2.80       700     1000      520     2100     1001   
                                         GEOM     BASIS   MCVARS     RHF     BASIS   

 PROGRAMS   *        TOTAL       INT   CCSD(T)    HF-SCF       INT
 CPU TIMES  *         1.62      0.52      0.07      0.21      0.62
 REAL TIME  *         2.17 SEC
 DISK USED  *        32.93 MB (local),      298.90 MB (total)
 SF USED    *         0.12 MB
 GA USED    *         0.00 MB       (max)       0.00 MB       (current)
 **********************************************************************************************************************************
  0.01119818      S-energy:    -0.00000003      T1 diagnostic:  0.00559909
                                                                       D1 diagnostic:  0.00791831

 Doubles amplitudes (print threshold =  0.500E-01):

         I         J         SYM. A    SYM. B    A         B      T(IJ, AB)

         1         1         5         5         2         2     -0.05633533


 RESULTS
 =======

  Reference energy                     -1.132965462614
  CCSD singlet pair energy             -0.039367532935
  CCSD triplet pair energy              0.000000000000
  CCSD correlation energy              -0.039367567075

  Triples (T) contribution              0.000000000000
  Total correlation energy             -0.039367567075

  CCSD total energy                    -1.172333029689
 !CCSD(T) total energy                 -1.172333029689

 Timing summary (sec):

 STEP                 CPU(USER)    SYS     CPU(TOT)    WALL
 CCSD iterations         0.03      0.01      0.04      0.04

 Program statistics:

 Available memory in ccsd:               299999994
 Min. memory needed in ccsd:                  2126
 Max. memory used in ccsd:                    2126
 Max. memory used in cckext:                 34198 ( 6 integral passes)



 PROGRAM * RHF-SCF (CLOSED SHELL)       Authors: W. Meyer, H.-J. Werner


 NUMBER OF ELECTRONS:       4+    4-
 CONVERGENCE THRESHOLDS:    1.00E-05 (Density)    1.00E-07 (Energy)
 MAX. NUMBER OF ITERATIONS:       60
 INTERPOLATION TYPE:            DIIS
 INTERPOLATION STEPS:              2 (START)      1 (STEP)
 LEVEL SHIFTS:                  0.00 (CLOSED)  0.00 (OPEN) 



 Molecular orbitals read from record     2100.2  Type=RHF/CANONICAL (state 1.1)

 Present basis size:       23   11   17    7
 Previous basis size:      11    4    7    2
 Previous occupation:       3    0    1    0
 Previous closed-shells:    3    0    1    0
 Previous core-orbitals:    1    0    0    0
 Present occupation:        3    0    1    0
 Present closed-shells:     3    0    1    0
 Present core-orbitals:     1    0    0    0
 Wavefunction symmetry:    1   Singlet 

 Orbital overlap <old|new>:  < 1.1| 1.1> = 0.999998   < 2.1| 2.1> = 0.999929   < 3.1| 3.1> = 0.999731   < 1.3| 1.3> = 0.999863


 Molecular orbital dump at record        2101.2

 ITERATION    DDIFF          GRAD             ENERGY        2-EL.EN.            DIPOLE MOMENTS         DIIS   ORB.
    1      0.000D+00      0.000D+00       -38.88855830     37.299926    0.00000    0.00000   -0.76297    0    start
    2      0.000D+00      0.849D-02       -38.89216613     37.295103    0.00000    0.00000   -0.74323    1    diag
    3      0.126D-01      0.106D-02       -38.89227012     37.287216    0.00000    0.00000   -0.75227    2    diag
    4      0.174D-02      0.154D-03       -38.89227546     37.286624    0.00000    0.00000   -0.75648    3    diag
p command="HF-SCF" commandset="SCFPRO">
   <!--


 Recomputing integrals since basis changed


 Using spherical harmonics

 Library entry H      S cc-pVQZ              selected for orbital group  1
 Library entry H      P cc-pVQZ              selected for orbital group  1
 Library entry H      D cc-pVQZ              selected for orbital group  1
 Library entry H      F cc-pVQZ              selected for orbital group  1


 PROGRAM * SEWARD (Integral evaluation for generally contracted gaussian basis sets)     Author: Roland Lindh, 1990

 Geometry written to block  1 of record 700


 Point group  D2h 



 ATOMIC COORDINATES

 NR  ATOM    CHARGE       X              Y              Z

   1  H       1.00    0.000000000    0.000000000    0.699459448
   2  H       1.00    0.000000000    0.000000000   -0.699459448

 Bond lengths in Bohr (Angstrom)

 1-2  1.398918897
     ( 0.740276000)

 NUCLEAR CHARGE:                    2
 NUMBER OF PRIMITIVE AOS:          74
 NUMBER OF SYMMETRY AOS:           64
 NUMBER OF CONTRACTIONS:           60   (   13Ag  +    7B3u +    7B2u +    3B1g +   13B1u +    7B2g +    7B3g +    3Au  )
 NUMBER OF CORE ORBITALS:           0   (    0Ag  +    0B3u +    0B2u +    0B1g +    0B1u +    0B2g +    0B3g +    0Au  )
 NUMBER OF VALENCE ORBITALS:        2   (    1Ag  +    0B3u +    0B2u +    0B1g +    1B1u +    0B2g +    0B3g +    0Au  )


 NUCLEAR REPULSION ENERGY    0.71483772

    5      0.293D-03      0.427D-04       -38.89227590     37.286306    0.00000    0.00000   -0.75812    4    diag
 1 1 2
 EXTRA SYMMETRY OF AOS IN SYMMETRY 3:   1 1 1 1 1 1 2
 EXTRA SYMMETRY OF AOS IN SYMMETRY 5:   1 1 1 1 1 1 1 1 2 1   2 1 2
 EXTRA SYMMETRY OF AOS IN SYMMETRY 6:   1 1 1 1 1 1 2
 EXTRA SYMMETRY OF AOS IN SYMMETRY 7:   1 1 1 1 1 1 2

 Eigenvalues of metric

         1 0.108E-02 0.138E-01 0.602E-01 0.160E+00 0.495E+00 0.500E+00 0.879E+00 0.119E+01
         2 0.129E+00 0.230E+00 0.661E+00 0.118E+01 0.125E+01 0.176E+01 0.379E+01
         3 0.129E+00 0.230E+00 0.661E+00 0.118E+01 0.125E+01 0.176E+01 0.379E+01
         4 0.495E+00 0.119E+01 0.241E+01
         5 0.202E-03 0.107E-02 0.530E-02 0.271E-01 0.974E-01 0.164E+00 0.190E+00 0.357E+00
         6 0.735E-02 0.575E-01 0.180E+00 0.473E+00 0.745E+00 0.131E+01 0.222E+01
         7 0.735E-02 0.575E-01 0.180E+00 0.473E+00 0.745E+00 0.131E+01 0.222E+01
         8 0.164E+00 0.357E+00 0.138E+01


 Contracted 2-electron integrals neglected if value below      1.0D-11
    6      0.121D-03      0.402D-05       -38.89227590     37.286438    0.00000    0.00000   -0.75826    5    diag
    7      0.127D-04      0.595D-06       -38.89227590     37.286407    0.00000    0.00000   -0.75827    6    diag
    8      0.150D-05      0.119D-06       -38.89227590     37.286415    0.00000    0.00000   -0.75827    0    orth

 Final occupancy:   3   0   1   0

 !RHF STATE  1.1 Energy               -38.892275902763
 Nuclear energy                         6.03098734
 One-electron energy                  -63.56647051
 Two-electron energy                   18.64320727
 Virial quotient                       -1.00104723
 !RHF STATE  1.1 Dipole moment          0.00000000     0.00000000    -0.75827292
 Dipole moment /Debye                   0.00000000     0.00000000    -1.92721129

 Orbital energies:

         1.1          2.1          3.1          4.1          5.1
    -11.290805    -0.891323    -0.395306     0.149955     0.442018

         1.2          2.2
      0.049149     0.499257

         1.3          2.3          3.3
     -0.562594     0.217476     0.372888

         1.4          2.4
      0.747707     1.218522


 HOMO      3.1    -0.395306 =     -10.7568eV
 LUMO      1.2     0.049149 =       1.3374eV
 LUMO-HOMO         0.444455 =      12.0942eV


 **********************************************************************************************************************************
 DATASETS  * FILE   NREC   LENGTH (MB)   RECORD NAMES
              1      18       30.03       500      610      700      900      950      970     1001      129      960     1100   
                                          VAR    BASINP    GEOM    SYMINP    ZMAT    AOBASIS   BASIS     P2S    ABASIS      S 
                                         1400     1410     1200     1210     1080     1600     1650     1700   
                                           T        V       H0       H01     AOSYM     SMH    MOLCAS    OPER   

              2       6        5.31       700     1000      520     2100     1001     2101   
                                         GEOM     BASIS   MCVARS     RHF     BASIS     RHF  

 PROGRAMS   *        TOTAL    HF-SCF       INT   CCSD(T)    HF-SCF       INT
 CPU TIMES  *         1.74      0.12      0.52      0.07      0.21      0.62
 REAL TIME  *         2.33 SEC
 DISK USED  *        35.44 MB (local),      319.41 MB (total)
 SF USED    *         0.12 MB
 GA USED    *         0.00 MB       (max)       0.00 MB       (current)
 **********************************************************************************************************************************


 PROGRAM * CCSD (Closed-shell coupled cluster)     Authors: C. Hampel, H.-J. Werner, 1991, M. Deegan, P.J. Knowles, 1992


 Convergence thresholds:  THRVAR = 1.00D-08  THRDEN = 1.00D-06

 CCSD(T)     terms to be evaluated (factor= 1.000)


 Number of core orbitals:           1 (   1   0   0   0 )
 Number of closed-shell orbitals:   3 (   2   0   1   0 )
 Number of external orbitals:      54 (  20  11  16   7 )

 Molecular orbitals read from record     2101.2  Type=RHF/CANONICAL (state 1.1)

 Number of N-1 electron functions:               3
 Number of N-2 electron functions:               6
 Number of singly external CSFs:                56
 Number of doubly external CSFs:              3734
 Total number of CSFs:                        3791

 Length of J-op  integral file:               0.00 MB
 Length of K-op  integral file:               0.07 MB
 Length of 3-ext integral record:             0.00 MB

 Memory could be reduced to 0.30 Mwords without degradation in triples

 Integral transformation finished. Total CPU:   0.01 sec, npass=  1  Memory used:   0.12 MW

 Reference energy:                    -38.89227590

 MP2 singlet pair energy:              -0.10803669
 MP2 triplet pair energy:              -0.03066299
 MP2 correlation energy:               -0.13869968
 MP2 total energy:                    -39.03097558

 SCS-MP2 correlation energy:           -0.14872322   (PS=  1.200000  PT=  0.333333)
 SCS-MP2 total energy:                -39.04099912

 ITER.      SQ.NORM     CORR.ENERGY   TOTAL ENERGY   ENERGY CHANGE        DEN1      VAR(S)    VAR(P)  DIIS     TIME  TIME/IT
   1      1.06267295    -0.16051386   -39.05278977    -0.02181419    -0.01560470  0.26D-03  0.17D-02  1  1     0.03     0.01
   2      1.07388858    -0.16330356   -39.05557946    -0.00278970    -0.00727685  0.17D-04  0.30D-03  2  2     0.03     0.01
   3      1.07935526    -0.16390490   -39.05618080    -0.00060134    -0.00155729  0.61D-05  0.93D-04  3  3     0.04     0.01
   4      1.08396395    -0.16420756   -39.05648346    -0.00030266    -0.00073776  0.90D-06  0.25D-04  4  4     0.04     0.01
   5      1.08727049    -0.16428102   -39.05655692    -0.00007347    -0.00036991  0.18D-06  0.36D-05  5  5     0.04     0.01
   6      1.08814785    -0.16428408   -39.05655998    -0.00000306    -0.00004021  0.13D-06  0.49D-06  6  6     0.04     0.00
   7      1.08831166    -0.16428970   -39.05656560    -0.00000562    -0.00000139  0.31D-07  0.41D-07  6  1     0.05     0.00
   8      1.08833617    -0.16428940   -39.05656530     0.00000030    -0.00000004  0.59D-08  0.23D-08  6  2     0.05     0.00
   9      1.08833671    -0.16428905   -39.05656495     0.00000035    -0.00000071  0.10D-08  0.25D-09  6  3     0.05     0.00

 Norm of t1 vector:      0.03160630      S-energy:     0.00000038      T1 diagnostic:  0.00912395
                                                                       D1 diagnostic:  0.01941311

 Doubles amplitudes (print threshold =  0.500E-01):

         I         J         SYM. A    SYM. B    A         B      T(IJ, AB)

         2         2         2         2         1         1     -0.12357324


 Total CPU time for triples:      0.00 sec


 RESULTS
 =======

  Reference energy                    -38.892275902763
  CCSD singlet pair energy             -0.133725354932
  CCSD triplet pair energy             -0.030564078575
  CCSD correlation energy              -0.164289048902

  Triples (T) contribution             -0.004817819209
  Total correlation energy             -0.169106868110

  CCSD total energy                   -39.056564951665
  CCSD[T] energy                      -39.061466312226
  CCSD-T energy                       -39.061336244311
 !CCSD(T) total energy                -39.061382770874

 Timing summary (sec):

 STEP                 CPU(USER)    SYS     CPU(TOT)    WALL
 Transformation          0.01      0.01      0.02      0.01
 CCSD iterations         0.05      0.01      0.06      0.07

 Program statistics:

 Available memory in ccsd:               299999958
 Min. memory needed in ccsd:                 25276
 Max. memory used in ccsd:                   27528
 Max. memory used in cckext:                 59237 ( 9 integral passes)



 **********************************************************************************************************************************
 DATASETS  * FILE   NREC   LENGTH (MB)   RECORD NAMES
              1      19       30.63       500      610      700      900      950      970     1001      129      960     1100   
                                          VAR    BASINP    GEOM    SYMINP    ZMAT    AOBASIS   BASIS     P2S    ABASIS      S 
                                         1400     1410     1200     1210     1080     1600     1650     1700     1380   
                                           T        V       H0       H01     AOSYM     SMH    MOLCAS    OPER     JKOP   

              2       6        5.31       700     1000      520     2100     1001     2101   
                                         GEOM     BASIS   MCVARS     RHF     BASIS     RHF  

 PROGRAMS   *        TOTAL   CCSD(T)    HF-SCF       INT   CCSD(T)    HF-SCF       INT
 CPU TIMES  *         1.84      0.08      0.12      0.52      0.07      0.21      0.62
 REAL TIME  *         2.45 SEC
 DISK USED  *        36.48 MB (local),      324.21 MB (total)
 SF USED    *         1.04 MB
 GA USED    *         0.00 MB       (max)       0.00 MB       (current)
 **********************************************************************************************************************************
 SETTING BASIS          =    VQZ


 Recomputing integrals since basis changed


 Using spherical harmonics

 Library entry C      S cc-pVQZ              selected for orbital group  1
 Library entry C      P cc-pVQZ              selected for orbital group  1
 Library entry C      D cc-pVQZ              selected for orbital group  1
 Library entry C      F cc-pVQZ              selected for orbital group  1
 Library entry C      G cc-pVQZ              selected for orbital group  1
 Library entry H      S cc-pVQZ              selected for orbital group  2
 Library entry H      P cc-pVQZ              selected for orbital group  2
 Library entry H      D cc-pVQZ              selected for orbital group  2
 Library entry H      F cc-pVQZ              selected for orbital group  2


 PROGRAM * SEWARD (Integral evaluation for generally contracted gaussian basis sets)     Author: Roland Lindh, 1990

 Geometry written to block  1 of record 700


 Point group  C2v 



 ATOMIC COORDINATES

 NR  ATOM    CHARGE       X              Y              Z

   1  C       6.00    0.000000000    0.000000000    0.330730418
   2  H       1.00    0.000000000    1.626517511   -0.992193143
   3  H       1.00    0.000000000   -1.626517511   -0.992193143

 Bond lengths in Bohr (Angstrom)

 1-2  2.096589125  1-3  2.096589125
     ( 1.109467186)     ( 1.109467186)

 Bond angles

  2-1-3  101.75382474

 NUCLEAR CHARGE:                    8
 NUMBER OF PRIMITIVE AOS:         157
 NUMBER OF SYMMETRY AOS:          132
 NUMBER OF CONTRACTIONS:          115   (   42A1  +   23B1  +   33B2  +   17A2  )
 NUMBER OF CORE ORBITALS:           1   (    1A1  +    0B1  +    0B2  +    0A2  )
 NUMBER OF VALENCE ORBITALS:        6   (    3A1  +    1B1  +    2B2  +    0A2  )


 NUCLEAR REPULSION ENERGY    6.03098734

 Eigenvalues of metric

         1 0.229E-03 0.510E-03 0.198E-02 0.476E-02 0.641E-02 0.103E-01 0.127E-01 0.334E-01
         2 0.627E-02 0.158E-01 0.508E-01 0.133E+00 0.147E+00 0.168E+00 0.287E+00 0.350E+00
         3 0.325E-03 0.188E-02 0.549E-02 0.120E-01 0.141E-01 0.161E-01 0.464E-01 0.506E-01
         4 0.140E-01 0.534E-01 0.148E+00 0.254E+00 0.297E+00 0.354E+00 0.481E+00 0.547E+00


 Contracted 2-electron integrals neglected if value below      1.0D-11
 SETTIN
 SORT1 READ      450560. AND WROTE       22819. INTEGRALS IN      1 RECORDS. CPU TIME:     0.02 SEC, REAL TIME:     0.03 SEC
nged


 Using spherical harmonics

 Library entry C      S cc-pVTZ              selected for orbital group  1
 Library entry C      P cc-pVTZ              selected for orbital group  1
 Library entry C      D cc-pVTZ              selected for orbital group  1
 Library entry C      F cc-pVTZ              selected for orbital group  1
 Library entry H      S cc-pVTZ              selected for orbital group  2
 Library entry H      P cc-pVTZ              selected for orbital group  2
 Library entry H      D cc-pVTZ              selected for orbital group  2


 PROGRAM * SEWARD (Integral evaluation for generally contracted gaussian basis sets)     Author: Roland Lindh, 1990

 Geometry written to block  1 of record 700


 Point group  C2v 



 ATOMIC COORDINATES

 NR  ATOM    CHARGE       X              Y              Z

   1  C       6.00    0.000000000    2.392476422   -0.493798664
   2  C       6.00    0.000000000   -2.392476422   -0.493798664
   3  C       6.00    0.000000000    0.000000000    1.120360038
   4  H       1.00    0.000000000    4.097610319    0.668203378
   5  H       1.00    0.000000000   -4.097610319    0.668203378
   6  H       1.00    1.667566142    2.452031140   -1.712284621
   7  H       1.00   -1.667566142    2.452031140   -1.712284621
   8  H       1.00    1.667566142   -2.452031140   -1.712284621
   9  H       1.00   -1.667566142   -2.452031140   -1.712284621
  10  H       1.00   -1.655961334    0.000000000    2.358068288
  11  H       1.00    1.655961334    0.000000000    2.358068288

 Bond lengths in Bohr (Angstrom)

 1-3  2.886078957  1-4  2.063426847  1-6  2.066163505  1-7  2.066163505  2-3  2.886078957
     ( 1.527247213)     ( 1.091918464)     ( 1.093366641)     ( 1.093366641)     ( 1.527247213)

  2- 5  2.063426847   2- 8  2.066163505   2- 9  2.066163505   3-10  2.067396830   3-11  2.067396830
       ( 1.091918464)       ( 1.093366641)       ( 1.093366641)       ( 1.094019288)       ( 1.094019288)

 Bond angles

  1- 3- 2  111.98640601   1- 3-10  109.56258043   1- 3-11  109.56258043   2- 3-10  109.56258043

  2- 3-11  109.56258043   3- 1- 4  111.71984468   3- 1- 6  110.71544122   3- 1- 7  110.71544122

  3-2-5  111.71984468   3-2-8  110.71544122   3-2-9  110.71544122   4-1-6  107.95589492

  4-1-7  107.95589492   5-2-8  107.95589492   5-2-9  107.95589492   6-1-7  107.62387369

  8- 2- 9  107.62387369  10- 3-11  106.44922516

 NUCLEAR CHARGE:                   26
 NUMBER OF PRIMITIVE AOS:         277
 NUMBER OF SYMMETRY AOS:          254
 NUMBER OF CONTRACTIONS:          202   (   67A1  +   45B1  +   55B2  +   35A2  )
 NUMBER OF CORE ORBITALS:           3   (    2A1  +    0B1  +    1B2  +    0A2  )
 NUMBER OF VALENCE ORBITALS:       20   (    8A1  +    4B1  +    6B2  +    2A2  )


 NUCLEAR REPULSION ENERGY   82.63933231

 Eigenvalues of metric

         1 0.987E-03 0.114E-02 0.143E-02 0.166E-02 0.308E-02 0.436E-02 0.909E-02 0.106E-01
         2 0.129E-02 0.167E-02 0.804E-02 0.841E-02 0.131E-01 0.186E-01 0.266E
 OPERATOR DM      FOR CENTER  0  COORDINATES:    0.000000    0.000000    0.000000


 **********************************************************************************************************************************
 DATASETS  * FILE   NREC   LENGTH (MB)   RECORD NAMES
              1      18       29.99       500      610      700      900      950      970     1002      129      960     1100   
                                          VAR    BASINP    GEOM    SYMINP    ZMAT    AOBASIS   BASIS     P2S    ABASIS      S 
                                         1400     1410     1200     1210     1080     1600     1650     1700   
                                           T        V       H0       H01     AOSYM     SMH    MOLCAS    OPER   

              2       7        5.29       700     1000      520     2100     1001     2101     1002   
                                         GEOM     BASIS   MCVARS     RHF     BASIS     RHF     BASIS   

 PROGRAMS   *        TOTAL       INT   CCSD(T)    HF-SCF       INT   CCSD(T)    HF-SCF       INT
 CPU TIMES  *         1.91      0.31      0.07      0.13      0.35      0.08      0.16      0.57
 REAL TIME  *         2.65 SEC
 DISK USED  *        35.32 MB (local),      317.87 MB (total)
 SF USED    *         0.04 MB
 GA USED    *         0.00 MB       (max)       0.00 MB       (current)
 **********************************************************************************************************************************


 PROGRAM * RHF-SCF (CLOSED SHELL)       Authors: W. Meyer, H.-J. Werner


 NUMBER OF ELECTRONS:       1+    1-
 CONVERGENCE THRESHOLDS:    1.00E-05 (Density)    1.00E-07 (Energy)
 MAX. NUMBER OF ITERATIONS:       60
 INTERPOLATION TYPE:            DIIS
 INTERPOLATION STEPS:              2 (START)      1 (STEP)
 LEVEL SHIFTS:                  0.00 (CLOSED)  0.00 (OPEN) 



 Molecular orbitals read from record     2101.2  Type=RHF/CANONICAL (state 1.1)

 Present basis size:       13    7    7    3   13    7    7    3
 Previous basis size:       7    3    3    1    7    3    3    1
 Previous occupation:       1    0    0    0    0    0    0    0
 Previous closed-shells:    1    0    0    0    0    0    0    0
 Present occupation:        1    0    0    0    0    0    0    0
 Present closed-shells:     1    0    0    0    0    0    0    0
 Wavefunction symmetry:    1   Singlet 

 Orbital overlap <old|new>:  < 1.1| 1.1> = 0.999991


 Molecular orbital dump at record        2102.2

 ITERATION    DDIFF          GRAD             ENERGY        2-EL.EN.            DIPOLE MOMENTS         DIIS   ORB.
    1      0.000D+00      0.000D+00        -1.13332901      1.317157    0.00000    0.00000    0.00000    0    start
    2      0.000D+00      0.613D-02        -1.13346194      1.317190    0.00000    0.00000    0.00000    1    diag
    3      0.115D-01      0.487D-03        -1.13346444      1.317316    0.00000    0.00000    0.00000    2    diag
    4      0.833D-03      0.500D-04        -1.13346449      1.317382    0.00000    0.00000    0.00000    3    diag
    5      0.741D-04      0.323D-05        -1.13346449      1.317392    0.00000    0.00000    0.00000    4    diag
    6      0.237D-05      0.102D-06        -1.13346449      1.317393    0.00000    0.00000    0.00000    0    orth

 Final occupancy:   1   0   0   0   0   0   0   0

 !RHF STATE  1.1 Energy                -1.133464493031
 Nuclear energy                         0.71483772
 One-electron energy                   -2.50699852
 Two-electron energy                    0.65869630
 Virial quotient                       -1.00645865
 !RHF STATE  1.1 Dipole moment          0.00000000     0.00000000     0.00000000
 Dipole moment /Debye                   0.00000000     0.00000000     0.00000000

 Orbital energies:

         1.1          2.1          3.1
     -0.594803     0.231526     0.802536

         1.2          2.2
      0.510080     2.153881

         1.3          2.3
      0.510080     2.153881

         1.4          2.4
      1.942049     6.238909

         1.5          2.5
      0.147714     0.522011

         1.6          2.6
      0.814837     2.361569

         1.7          2.7
      0.814837     2.361569

         1.8          2.8
      2.554476     7.610929


 HOMO      1.1    -0.594803 =     -16.1854eV
 LUMO      1.5     0.147714 =       4.0195eV
 LUMO-HOMO         0.742517 =      20.2049eV


 **********************************************************************************************************************************
 DATASETS  * FILE   NREC   LENGTH (MB)   RECORD NAMES
              1      18       29.99       500      610      700      900      950      970     1002      129      960     1100   
                                          VAR    BASINP    GEOM    SYMINP    ZMAT    AOBASIS   BASIS     P2S    ABASIS      S 
                                         1400     1410     1200     1210     1080     1600     1650     1700   
                                           T        V       H0       H01     AOSYM     SMH    MOLCAS    OPER   

              2       8        7.78       700     1000      520     2100     1001     2101     1002     2102   
                                         GEOM     BASIS   MCVARS     RHF     BASIS     RHF     BASIS     RHF  

 PROGRAMS   *        TOTAL    HF-SCF       INT   CCSD(T)    HF-SCF       INT   CCSD(T)    HF-SCF       INT
 CPU TIMES  *         2.09      0.18      0.31      0.07      0.13      0.35      0.08      0.16      0.57
 REAL TIME  *         2.88 SEC
 DISK USED  *        37.85 MB (local),      338.12 MB (total)
 SF USED    *         0.04 MB
 GA USED    *         0.00 MB       (max)       0.00 MB       (current)
 **********************************************************************************************************************************
 Molecular orbitals read from record     2102.2  Type=RHF/CANONICAL (state 1.1)
 Occupation numbers read from record     2102.2  Type=RHF/RHF (state 1.1)
 Orbital energies read from record       2102.2  Type=RHF/CANONICAL (state 1.1)
 Redundancy group numbers read from rec  2102.2  Type=RHF/RHF (state 1.1)

 HF/cc-pVQZ energy=     -1.133464493031

          HF-SCF         CCSD(T)          HF-SCF         CCSD(T)          HF-SCF
     -1.13346449     -1.17233303     -1.13296546     -1.16338250     -1.12870326
 **********************************************************************************************************************************
 Molpro calculation terminated
 Nuclear energy                         6.03098734
 One-electron energy                  -63.56296918
 Two-electron energy                   18.63693771
 Virial quotient                       -1.00085303
 !RHF STATE  1.1 Dipole moment          0.00000000     0.00000000    -0.74956777
 Dipole moment /Debye                   0.00000000     0.00000000    -1.90508645

 Orbital energies:

         1.1          2.1          3.1          4.1          5.1
    -11.291918    -0.892179    -0.396540     0.122218     0.325666

         1.2          2.2
      0.042163     0.381373

         1.3          2.3          3.3
     -0.563910     0.187968     0.290759

         1.4          2.4
      0.570965     0.894109


 HOMO      3.1    -0.396540 =     -10.7904eV
 LUMO      1.2     0.042163 =       1.1473eV
 LUMO-HOMO         0.438704 =      11.9377eV


 **********************************************************************************************************************************
 DATASETS  * FILE   NREC   LENGTH (MB)   RECORD NAMES
              1      18       30.15       500      610      700      900      950      970     1002      129      960     1100   
                                          VAR    BASINP    GEOM    SYMINP    ZMAT    AOBASIS   BASIS     P2S    ABASIS      S 
                                         1400     1410     1200     1210     1080     1600     1650     1700   
                                           T        V       H0       H01     AOSYM     SMH    MOLCAS    OPER   

              2       8        7.92       700     1000      520     2100     1001     2101     1002     2102   
                                         GEOM     BASIS   MCVARS     RHF     BASIS     RHF     BASIS     RHF  

 PROGRAMS   *        TOTAL    HF-SCF       INT   CCSD(T)    HF-SCF       INT   CCSD(T)    HF-SCF       INT
 CPU TIMES  *         2.93      0.13      0.92      0.08      0.12      0.52      0.07      0.21      0.62
 REAL TIME  *         3.70 SEC
 DISK USED  *        38.34 MB (local),      400.51 MB (total)
 SF USED    *         1.04 MB
 GA USED    *         0.00 MB       (max)       0.00 MB       (current)
 **********************************************************************************************************************************
 Molecular orbitals read from record     2102.2  Type=RHF/CANONICAL (state 1.1)
 Occupation numbers read from record     2102.2  Type=RHF/RHF (state 1.1)
 Orbital energies read from record       2102.2  Type=RHF/CANONICAL (state 1.1)
 Redundancy group numbers read from rec  2102.2  Type=RHF/RHF (state 1.1)

 HF/cc-pVQZ energy=    -38.895044130190

          HF-SCF         CCSD(T)          HF-SCF         CCSD(T)          HF-SCF
    -38.89504413    -39.06138277    -38.89227590    -39.02215774    -38.88107087
 **********************************************************************************************************************************
 Molpro calculation terminated
