
 Primary working directories    : /home/tmp/molpro/molpro.dpYaFWLMrU
 Secondary working directories  : /home/tmp/molpro/molpro.dpYaFWLMrU
 Wavefunction directory         : /root/wfu/
 Main file repository           : /home/tmp/molpro/molpro.CfMFvBdaUD/

 id        : scuxyl

 Nodes                nprocs
 localhost.localdomain    8
 Wavefunction directory         : /root/wfu/
invec=7
 default implementation of scratch files=sf  


 Variables initialized (934), CPU time= 0.02 sec
 ***,CCC
 
 geometry={
 C        0.000000        1.266044       -0.261307
 C        0.000000        0.000000        0.592869
 C        0.000000       -1.266044       -0.261307
 H        0.000000        2.168362        0.353598
 H        0.882438        1.297559       -0.906102
 H       -0.882438        1.297559       -0.906102
 H       -0.876297        0.000000        1.247836
 H        0.876297        0.000000        1.247836
 H        0.000000       -2.168362        0.353598
 H        0.882438       -1.297559       -0.906102
 H       -0.882438       -1.297559       -0.906102
 }
 
 basis=vdz
 {hf;wf,26,spin,0,state,1}
 ccsd(t)
 
 basis=vtz
 hf
 ccsd(t)
 
 basis=vqz
 hf
 Commands  initialized (763), CPU time= 0.02 sec, 617 directives.
 Default parameters read. Elapsed time= 0.07 sec

 Checking input...
 Passed
1


                                         ***  PROGRAM SYSTEM MOLPRO  ***
                                       Copyright, TTI GmbH Stuttgart, 2015
                                    Version 2019.2 linked Jun  8 2019 11:26:33


 **********************************************************************************************************************************
 LABEL *   CCC                                                                           
  64 bit mpp version                                                                     DATE: 24-Jul-22          TIME: 16:25:08  
 **********************************************************************************************************************************

 SHA1:             8135a10abc80eafa5b3ae28ffc55be4890dc4c84
 **********************************************************************************************************************************

Geometry recognized as XYZ


 Variable memory set to  300000000 words,  buffer space 

 SETTING BASIS          =    VDZ


 Recomputing integrals since basis changed


 Using spherical harmonics

 Library entry C      S cc-pVDZ              selected for orbital group  1
 Library entry C      P cc-pVDZ              selected for orbital group  1
 Library entry C      D cc-pVDZ              selected for orbital group  1
 Library entry H      S cc-pVDZ              selected for orbital group  2
 Library entry H      P cc-pVDZ              selected for orbital group  2


 PROGRAM * SEWARD (Integral evaluation for generally contracted gaussian basis sets)     Author: Roland Lindh, 1990

 Geometry written to block  1 of record 700


 Point group  C2v 



 ATOMIC COORDINATES

 NR  ATOM    CHARGE       X              Y              Z

   1  C       6.00    0.000000000    2.392476422   -0.493798664
   2  C       6.00    0.000000000   -2.392476422   -0.493798664
   3  C       6.00    0.000000000    0.000000000    1.120360038
   4  H       1.00    0.000000000    4.097610319    0.668203378
   5  H       1.00    0.000000000   -4.097610319    0.668203378
   6  H       1.00    1.667566142    2.452031140   -1.712284621
   7  H       1.00   -1.667566142    2.452031140   -1.712284621
   8  H       1.00    1.667566142   -2.452031140   -1.712284621
   9  H       1.00   -1.667566142   -2.452031140   -1.712284621
  10  H       1.00   -1.655961334    0.000000000    2.358068288
  11  H       1.00    1.655961334    0.000000000    2.358068288

 Bond lengths in Bohr (Angstrom)

 1-3  2.886078957  1-4  2.063426847  1-6  2.066163505  1-7  2.066163505  2-3  2.886078957
     ( 1.527247213)     ( 1.091918464)     ( 1.093366641)     ( 1.093366641)     ( 1.527247213)

  2- 5  2.063426847   2- 8  2.066163505   2- 9  2.066163505   3-10  2.067396830   3-11  2.067396830
       ( 1.091918464)       ( 1.093366641)       ( 1.093366641)       ( 1.094019288)       ( 1.094019288)

 Bond angles

  1- 3- 2  111.98640601   1- 3-10  109.56258043   1- 3-11  109.56258043   2- 3-10  109.56258043

  2- 3-11  109.56258043   3- 1- 4  111.71984468   3- 1- 6  110.71544122   3- 1- 7  110.71544122

  3-2-5  111.71984468   3-2-8  110.71544122   3-2-9  110.71544122   4-1-6  107.95589492

  4-1-7  107.95589492   5-2-8  107.95589492   5-2-9  107.95589492   6-1-7  107.62387369

  8- 2- 9  107.62387369  10- 3-11  106.44922516

 NUCLEAR CHARGE:                   26
 NUMBER OF PRIMITIVE AOS:         137
 NUMBER OF SYMMETRY AOS:          134
 NUMBER OF CONTRACTIONS:           82   (   30A1  +   17B1  +   23B2  +   12A2  )
 NUMBER OF CORE ORBITALS:           3   (    2A1  +    0B1  +    1B2  +    0A2  )
 NUMBER OF VALENCE ORBITALS:       20   (    8A1  +    4B1  +    6B2  +    2A2  )


 NUCLEAR REPULSION ENERGY   82.63933231

 Eigenvalues of metric

         1 0.382E-02 0.151E-01 0.339E-01 0.365E-01 0.429E-01 0.503E-01 0.575E-01 0.937E-01
         2 0.236E-01 0.356E-01 0.388E-01 0.583E-01 0.114E+00 0.154E+00 0.288E+00 0.423E+00
         3 0.657E-02 0.236E-01 0.299E-01 0.364E-01 0.501E-01 0.812E-01 0.124E+00 0.130E+00
         4 0.336E-01 0.450E-01 0.118E+00 0.263E+00 0.355E+00 0.659E+00 0.911E+00 0.108E+01


 Contracted 2-electron integrals neglected if value below      1.0D-11
 AO integral compression algorithm  1   Integral accuracy      1.0D-11

     2.097 MB (compressed) written to integral file (100.0%)

     Node minimum: 0.262 MB, node maximum: 0.262 MB

al file (100.0%)

     Node minimum: 0.262 MB, node maximum: 0.262 MB

 AO integral compression algorithm  1   Integral accuracy      1.0D-11

     9.699 MB (compressed) written to integral file ( 65.0%)

     Node minimum: 0.786 MB, node maximum: 1.573 MB

   0.56 MW

 SORT1 READ       19290. AND WROTE        1420. INTEGRALS IN      1 RECORDS. CPU TIME:     0.04 SEC, REAL TIME:     0.06 SEC
 SORT2 READ         373. AND WROTE         373. INTEGRALS IN      8 RECORDS. CPU TIME:     0.01 SEC, REAL TIME:     0.00 SEC

 Node minimum:           0.  Node maximum:         174. integrals

 OPERATOR DM      FOR CENTER  0  COORDINATES:    0.000000    0.000000    0.000000


 **********************************************************************************************************************************
 DATASETS  * FILE   NREC   LENGTH (MB)   RECORD NAMES
              1      18       29.95       500      610      700      900      950      970     1000      129      960     1100   
                                          VAR    BASINP    GEOM    SYMINP    ZMAT    AOBASIS   BASIS     P2S    ABASIS      S 
                                         1400     1410     1200     1210     1080     1600     1650     1700   
                                           T        V       H0       H01     AOSYM     SMH    MOLCAS    OPER   

 PROGRAMS   *        TOTAL       INT
 CPU TIMES  *         0.75      0.57
 REAL TIME  *         1.14 SEC
 DISK USED  *        30.23 MB (local),      271.46 MB (total)
 GA USED    *         0.00 MB       (max)       0.00 MB       (current)
 **********************************************************************************************************************************

 NUMBER OF SORTED TWO-ELECTRON INTEGRALS:     187557.     BUFFER LENGTH:  32768
 NUMBER OF SEGMENTS:   1  SEGMENT LENGTH:     187557      RECORD LENGTH: 524288

 Memory used in sort:       0.74 MW
TERATIONS:       60
 INTERPOLATION TYPE:            DIIS
 INTERPOLATION STEPS:              2 (START)      1 (STEP)
 LEVEL SHIFTS:                  0.00 (CLOSED)  0.00 (OPEN) 



 Orbital guess generated from atomic densities. Full valence occupancy:    1   0   0   0   1   0   0   0


 Molecular orbital dump at record        2100.2
      0.00 (CLOSED)  0.00 (OPEN) 



 Orbital guess generated from atomic densities. Full valence occupancy:    4   1   2   0

 Molecular orbital dump at record        2100.2

 SORT1 READ     1929373. AND WROTE      185820. INTEGRALS IN      1 RECORDS. CPU TIME:     0.07 SEC, REAL TIME:     0.09 SEC
OMENTS         DIIS   ORB.
    1      0.000D+00      0.000D+00       -38.87053616     36.829066    0.00000    0.00000   -0.92219    0    start
 0    start
    2      0.000D+00      0.184D-01        -1.12865966      1.311440    0.00000    0.00000    0.00000    1    diag
    2      0.000D+00      0.156D-01       -38.88069993     37.364956    0.00000    0.00000   -0.79599    1    diag
    3      0.353D-01      0.254D-02       -38.88103560     37.281860    0.00000    0.00000   -0.77525    2    diag
    4      0.588D-02      0.779D-03       -38.88106872     37.302755    0.00000    0.00000   -0.77295    3    diag
 SORT2 READ     1502917. AND WROTE     1518048. INTEGRALS IN     24 RECORDS. CPU TIME:     0.02 SEC, REAL TIME:     0.03 SEC

 Node minimum:      185907.  Node maximum:      193612. integrals
          -1.128703256545
 Nuclear energy                         0.71483772
 One-electron energy                   -2.50242686
 Two-electron energy                    0.65888588
 Virial quotient                       -1.02896336
 !RHF STATE  1.1 Dipole moment          0.00000000     0.00000000     0.00000000
 Dipole moment /Debye                   0.00000000     0.00000000     0.00000000

 Orbital energies:

         1.1          2.1          3.1
     -0.592328     0.479387     1.956756

         1.2
      1.292873

         1.3
      1.292873

         1.5          2.5
      0.197387     0.937125

         1.6
      2.043332

         1.7
      2.043332


 HOMO      1.1    -0.592328 =     -16.1181eV
 LUMO      1.5     0.197387 =       5.3712eV
 LUMO-HOMO         0.789715 =      21.4892eV


 **********************************************************************************************************************************
 DATASETS  * FILE   NREC   LENGTH (MB)   RECORD NAMES
              1      18       29.95       500      610      700      900      950      970     1000      129      960     1100   
                                          VAR    BASINP    GEOM    SYMINP    ZMAT    AOBASIS   BASIS     P2S    ABASIS      S 
                                         1400     1410     1200     1210     1080     1600     1650     1700   
                                           T        V       H0       H01     AOSYM     SMH    MOLCAS    OPER   

              2       4        2.76       700     1000      520     2100   
                                         GEOM     BASIS   MCVARS     RHF  

 PROGRAMS   *        TOTAL    HF-SCF       INT
 CPU TIMES  *         0.92      0.16      0.57
 REAL TIME  *         1.35 SEC
 DISK USED  *        32.75 MB (local),      291.63 MB (total)
 SF USED    *         0.00 MB
 GA USED    *         0.00 MB       (max)       0.00 MB       (current)
 **********************************************************************************************************************************

 OPERATOR DM      FOR CENTER  0  COORDINATES:    0.000000    0.000000    0.000000


 **********************************************************************************************************************************
 DATASETS  * FILE   NREC   LENGTH (MB)   RECORD NAMES
              1      18       30.21       500      610      700      900      950      970     1000      129      960     1100   
                                          VAR    BASINP    GEOM    SYMINP    ZMAT    AOBASIS   BASIS     P2S    ABASIS      S 
                                         1400     1410     1200     1210     1080     1600     1650     1700   
                                           T        V       H0       H01     AOSYM     SMH    MOLCAS    OPER   

 PROGRAMS   *        TOTAL       INT
 CPU TIMES  *         1.00      0.81
 REAL TIME  *         1.39 SEC
 DISK USED  *        30.67 MB (local),      286.66 MB (total)
 GA USED    *         0.00 MB       (max)       0.00 MB       (current)
 **********************************************************************************************************************************


 PROGRAM * RHF-SCF (CLOSED SHELL)       Authors: W. Meyer, H.-J. Werner


 NUMBER OF ELECTRONS:      13+   13-
 CONVERGENCE THRESHOLDS:    1.00E-05 (Density)    1.00E-07 (Energy)
 MAX. NUMBER OF ITERATIONS:       60
 INTERPOLATION TYPE:            DIIS
 INTERPOLATION STEPS:              2 (START)      1 (STEP)
 LEVEL SHIFTS:                  0.00 (CLOSED)  0.00 (OPEN) 



 Orbital guess generated from atomic densities. Full valence occupancy:   10   4   7   2

 Molecular orbital dump at record        2100.2
Dipole moment /Debye                   0.00000000     0.00000000    -1.95604541

 Orbital energies:

         1.1          2.1          3.1          4.1          5.1
    -11.293415    -0.889033    -0.390584     0.195527     0.694754

         1.2          2.2
      0.062874     0.738210

         1.3          2.3          3.3
     -0.558374     0.260607     0.586155

         1.4          2.4
      1.214941     2.008689


 HOMO      3.1    -0.390584 =     5      1.01715940    -0.03467886    -1.16338211     0.00000201     0.00000195  0.18D-10  0.29D-10  5  5     0.03     0.00
****************************************************************************************************************
 DATASETS  * FILE   NREC   LENGTH (MB)   RECORD NAMES
              1      18       29.98       500      610      700      900      950      970     1000      129      960     1100   
                                          VAR    BASINP    GEOM    SYMINP    ZMAT    AOBASIS   BASIS     P2S    ABASIS      S 
                                         1400     1410     1200     1210     1080     1600     1650     1700   
                                           T        V       H0       H01     AOSYM     SMH    MOLCAS    OPER   

              2       4        2.78       700     1000      520     2100   
                                         GEOM     BASIS   MCVARS     RHF  

 PROGRAMS   *        TOTAL    HF-SCF       INT
 CPU TIMES  *         1.01      0.21      0.62
 REAL TIME  *         1.43 SEC
 DISK USED  *        32.82 MB (local),      296.24 MB (total)
 SF USED    *         0.00 MB
 GA USED    *         0.00 MB       (max)       0.00 MB       (current)
 **********************************************************************************************************************************
   6      1.01715999    -0.03467937    -1.16338263    -0.00000052    -0.00000049  0.10D-11  0.12D-12  6  6     0.03     0.00
   7      1.01715982    -0.03467924    -1.16338250     0.00000013     0.00000013  0.43D-13  0.47D-13  6  1     0.03     0.00

 Norm of t1 vector:      0.01029727      S-energy:    -0.00000000      T1 diagnostic:  0.00514863
                                                                       D1 diagnostic:  0.00728127

 Doubles amplitudes (print threshold =  0.500E-01):

         I         J         SYM. A    SYM. B    A         B      T(IJ, AB)

         1         1         1         1         1         1     -0.05072191
         1         1         5         5         1         1     -0.05345372
         1         1         5         5         2         2     -0.05315639


 RESULTS
 =======

  Reference energy                     -1.128703256545
  CCSD singlet pair energy             -0.034679237980
  CCSD triplet pair energy              0.000000000000
  CCSD correlation energy              -0.034679240017

  Triples (T) contribution              0.000000000000
  Total correlation energy             -0.034679240017

  CCSD total energy                    -1.163382496562
 !CCSD(T) total energy                 -1.163382496562

 Timing summary (sec):

 STEP                 CPU(USER)    SYS     CPU(TOT)    WALL
 CCSD iterations         0.03      0.01      0.04      0.06

 Program statistics:

 Available memory in ccsd:               299999995
 Min. memory needed in ccsd:                   382
 Max. memory used in ccsd:                     382
 Max. memory used in cckext:                 33022 ( 7 integral passes)


 Initial occupancy:   6   2   4   1

 ITERATION    DDIFF          GRAD             ENERGY        2-EL.EN.            DIPOLE MOMENTS         DIIS   ORB.
    1      0.000D+00      0.000D+00      -118.22848940    243.336419    0.00000    0.00000   -0.00019    0    start
      970     1000      129      960     1100   
                                          VAR    BASINP    GEOM    SYMINP    ZMAT    AOBASIS   BASIS     P2S    ABASIS      S 
                                         1400     1410     1200     1210     1080     1600     1650     1700     1380   
                                           T        V       H0       H01     AOSYM     SMH    MOLCAS    OPER     JKOP   

              2       4        2.76       700     1000      520     2100   
                                         GEOM     BASIS   MCVARS     RHF  

 PROGRAMS   *        TOTAL   CCSD(T)    HF-SCF       INT
 CPU TIMES  *         1.01      0.08      0.16      0.57
 REAL TIME  *         1.47 SEC
 DISK USED  *        32.75 MB (local),      291.64 MB (total)
 SF USED    *         0.00 MB
 GA USED    *         0.00 MB       (max)       0.00 MB       (current)
 **********************************************************************************************************************************
    2      0.000D+00      0.101D-01      -118.26708266    240.268833    0.00000    0.00000    0.01498    1    diag
E  TIME/IT
   1      1.05742693    -0.13400308   -39.01507395    -0.02380744    -0.01743165  0.16D-03  0.19D-02  1  1     0.01     0.00
   2      1.06969682    -0.13713865   -39.01820952    -0.00313557    -0.00807065  0.20D-04  0.29D-03  2  2     0.02     0.00
   3      1.07619551    -0.13784737   -39.01891824    -0.00070872    -0.00143285  0.45D-05  0.77D-04  3  3     0.02     0.00
   4      1.08140365    -0.13816441   -39.01923528    -0.00031704    -0.00079235  0.32D-06  0.17D-04  4  4     0.02     0.00
   5      1.08411776    -0.13817647   -39.01924734    -0.00001205    -0.00023776  0.26D-06  0.29D-05  5  5     0.02     0.00
   6      1.08484956    -0.13818644   -39.01925731    -0.00000998    -0.00002334  0.13D-06  0.27D-06  6  6     0.03     0.00
0000000    0.000000000    0.699459448
   2  H       1.00    0.000000000    0.000000000   -0.699459448

 Bond lengths in Bohr (Angstrom)

 1-2  1.398918897
     ( 0.740276000)

 NUCLEAR CHARGE:                    2
 NUMBER OF PRIMITIVE AOS:          34
 NUMBER OF SYMMETRY AOS:           32
 NUMBER OF CONTRACTIONS:           28   (    7Ag  +    3B3u +    3B2u +    1B1g +    7B1u +    3B2g +    3B3g +    1Au  )
 NUMBER OF CORE ORBITALS:           0   (    0Ag  +    0B3u +    0B2u +    0B1g +    0B1u +    0B2g +    0B3g +    0Au  )
 NUMBER OF VALENCE ORBITALS:        2   (    1Ag  +    0B3u +    0B2u +    0B1g +    1B1u +    0B2g +    0B3g +    0Au  )


 NUCLEAR REPULSION ENERGY    0.71483772

B)

         1         1         2         2         1         1     -0.05149146
         2         2         2         2         1         1     -0.13863571


 Total CPU time for triples:      0.00 sec


 RESULTS
 =======

  Reference energy                    -38.881070870527
  CCSD singlet pair energy             -0.113561586145
  CCSD triplet pair energy             -0.024629067234
  CCSD correlation energy              -0.138190367039

  Triples (T) contribution             -0.002896503374
  Total correlation energy             -0.141086870413

  CCSD total energy                   -39.019261237566
  CCSD[T] energy                      -39.022187581675
  CCSD-T energy                       -39.022141160704
 !CCSD(T) total energy                -39.022157740939

 Timing summary (sec):

 STEP                 CPU(USER)    SYS     CPU(TOT)    WALL
 CCSD iterations         0.04      0.02      0.06      0.05

 Program statistics:

 Available memory in ccsd:               299999961
 Min. memory needed in ccsd:                  4741
 Max. memory used in ccsd:                    5019
 Max. memory used in cckext:                 37241 ( 9 integral passes)

    4      0.763D-02      0.120D-02      -118.27243094    241.249972    0.00000    0.00000    0.02671    3    diag
    5      0.260D-02      0.144D-03      -118.27244072    241.258593    0.00000    0.00000    0.02591    4    diag
500      610      700      900      950      970     1000      129      960     1100   
                                          VAR    BASINP    GEOM    SYMINP    ZMAT    AOBASIS   BASIS     P2S    ABASIS      S 
                                         1400     1410     1200     1210     1080     1600     1650     1700     1380   
                                           T        V       H0       H01     AOSYM     SMH    MOLCAS    OPER     JKOP   

              2       4        2.78       700     1000      520     2100   
                                         GEOM     BASIS   MCVARS     RHF  

 PROGRAMS   *        TOTAL   CCSD(T)    HF-SCF       INT
 CPU TIMES  *         1.10      0.07      0.21      0.62
 REAL TIME  *         1.55 SEC
 DISK USED  *        32.93 MB (local),      296.60 MB (total)
 SF USED    *         0.12 MB
 GA USED    *         0.00 MB       (max)       0.00 MB       (current)
 **********************************************************************************************************************************
    6      0.393D-03      0.443D-04      -118.27244146    241.256784    0.00000    0.00000    0.02607    5    diag
 memory="0.0" sf="0.12" df="262.89" eaf="33.72" ga="0.0"/>
  </jobstep><!--
 SETTING BASIS          =    VTZ


 Recomputing integrals since basis changed


 Using spherical harmonics

 Library entry C      S cc-pVTZ              selected for orbital group  1
 Library entry C      P cc-pVTZ              selected for orbital group  1
 Library entry C      D cc-pVTZ              selected for orbital group  1
 Library entry C      F cc-pVTZ              selected for orbital group  1
 Library entry H      S cc-pVTZ              selected for orbital group  2
 Library entry H      P cc-pVTZ              selected for orbital group  2
 Library entry H      D cc-pVTZ              selected for orbital group  2


 PROGRAM * SEWARD (Integral evaluation for generally contracted gaussian basis sets)     Author: Roland Lindh, 1990

 Geometry written to block  1 of record 700


 Point group  C2v 



 ATOMIC COORDINATES

 NR  ATOM    CHARGE       X              Y              Z

   1  C       6.00    0.000000000    0.000000000    0.330730418
   2  H       1.00    0.000000000    1.626517511   -0.992193143
   3  H       1.00    0.000000000   -1.626517511   -0.992193143

 Bond lengths in Bohr (Angstrom)

 1-2  2.096589125  1-3  2.096589125
     ( 1.109467186)     ( 1.109467186)

 Bond angles

  2-1-3  101.75382474

 NUCLEAR CHARGE:                    8
 NUMBER OF PRIMITIVE AOS:          81
 NUMBER OF SYMMETRY AOS:           74
 NUMBER OF CONTRACTIONS:           58   (   23A1  +   11B1  +   17B2  +    7A2  )
 NUMBER OF CORE ORBITALS:           1   (    1A1  +    0B1  +    0B2  +    0A2  )
 NUMBER OF VALENCE ORBITALS:        6   (    3A1  +    1B1  +    2B2  +    0A2  )


 NUCLEAR REPULSION ENERGY    6.03098734

    7      0.112D-03      0.613D-05      -118.27244148    241.256680    0.00000    0.00000    0.02576    6    diag
         2 0.341E-01 0.111E+00 0.272E+00 0.447E+00 0.472E+00 0.598E+00 0.116E+01 0.125E+01
         3 0.223E-02 0.114E-01 0.324E-01 0.461E-01 0.993E-01 0.154E+00 0.258E+00 0.336E+00
         4 0.102E+00 0.330E+00 0.460E+00 0.900E+00 0.126E+01 0.132E+01 0.246E+01


 Contracted 2-electron integrals neglected if value below      1.0D-11
    8      0.191D-04      0.118D-05      -118.27244148    241.256616    0.00000    0.00000    0.02576    7    diag
    9      0.333D-05      0.264D-06      -118.27244148    241.256622    0.00000    0.00000    0.02575    0    orth

 Final occupancy:   6   2   4   1

 !RHF STATE  1.1 Energy              -118.272441484542
 Nuclear energy                        82.63933231
 One-electron energy                 -321.54008470
 Two-electron energy                  120.62831091
 Virial quotient                       -1.00135653
 !RHF STATE  1.1 Dipole moment          0.00000000     0.00000000     0.02574685
 Dipole moment /Debye                   0.00000000     0.00000000     0.06543768

 Orbital energies:

         1.1          2.1          3.1          4.1          5.1          6.1          7.1          8.1
    -11.221692   -11.216154    -1.053234    -0.799462    -0.596589    -0.474159     0.183156     0.233622

         1.2          2.2          3.2          4.2
     -0.622849    -0.466890     0.235171     0.283500

         1.3          2.3          3.3          4.3          5.3          6.3
    -11.216201    -0.924432    -0.547799    -0.473527     0.230290     0.293534

         1.4          2.4          3.4
     -0.528742     0.306489     0.612937


 HOMO      2.2    -0.466890 =     -12.7047eV
 LUMO      7.1     0.183156 =       4.9839eV
 LUMO-HOMO         0.650046 =      17.6887eV


 **********************************************************************************************************************************
 DATASETS  * FILE   NREC   LENGTH (MB)   RECORD NAMES
              1      18       30.21       500      610      700      900      950      970     1000      129      960     1100   
                                          VAR    BASINP    GEOM    SYMINP    ZMAT    AOBASIS   BASIS     P2S    ABASIS      S 
                                         1400     1410     1200     1210     1080     1600     1650     1700   
                                           T        V       H0       H01     AOSYM     SMH    MOLCAS    OPER   

              2       4        2.96       700     1000      520     2100   
                                         GEOM     BASIS   MCVARS     RHF  

 PROGRAMS   *        TOTAL    HF-SCF       INT
 CPU TIMES  *         1.32      0.31      0.81
 REAL TIME  *         1.77 SEC
 DISK USED  *        33.35 MB (local),      308.14 MB (total)
 SF USED    *         0.01 MB
 GA USED    *         0.00 MB       (max)       0.00 MB       (current)
 **********************************************************************************************************************************


 PROGRAM * CCSD (Closed-shell coupled cluster)     Authors: C. Hampel, H.-J. Werner, 1991, M. Deegan, P.J. Knowles, 1992


 Convergence thresholds:  THRVAR = 1.00D-08  THRDEN = 1.00D-06

 CCSD(T)     terms to be evaluated (factor= 1.000)


 Number of core orbitals:           3 (   2   0   1   0 )
 Number of closed-shell orbitals:  10 (   4   2   3   1 )
 Number of external orbitals:      69 (  24  15  19  11 )

 Molecular orbitals read from record     2100.2  Type=RHF/CANONICAL (state 1.1)

 Number of N-1 electron functions:              10
 Number of N-2 electron functions:              55
 Number of singly external CSFs:               194
 Number of doubly external CSFs:             60476
 Total number of CSFs:                       60671

 Length of J-op  integral file:               0.00 MB
 Length of K-op  integral file:               0.13 MB
 Length of 3-ext integral record:             0.00 MB

 Memory could be reduced to 1.25 Mwords without degradation in triples

 Integral transformation finished. Total CPU:   0.07 sec, npass=  1  Memory used:   0.34 MW

 Reference energy:                   -118.27244148

 MP2 singlet pair energy:              -0.30091558
 MP2 triplet pair energy:              -0.14420048
 MP2 correlation energy:               -0.44511607
 MP2 total energy:                   -118.71755755

 SCS-MP2 correlation energy:           -0.45082345   (PS=  1.200000  PT=  0.333333)
 SCS-MP2 total energy:               -118.72326493
1001      129      960     1100   
                                          VAR    BASINP    GEOM    SYMINP    ZMAT    AOBASIS   BASIS     P2S    ABASIS      S 
                                         1400     1410     1200     1210     1080     1600     1650     1700   
                                           T        V       H0       H01     AOSYM     SMH    MOLCAS    OPER   

              2       5        2.77       700     1000      520     2100     1001   
                                         GEOM     BASIS   MCVARS     RHF     BASIS   

 PROGRAMS   *        TOTAL       INT   CCSD(T)    HF-SCF       INT
 CPU TIMES  *         1.37      0.35      0.08      0.16      0.57
 REAL TIME  *         1.94 SEC
 DISK USED  *        32.78 MB (local),      295.99 MB (total)
 SF USED    *         0.00 MB
 GA USED    *         0.00 MB       (max)       0.00 MB       (current)
 **********************************************************************************************************************************


 PROGRAM * RHF-SCF (CLOSED SHELL)       Authors: W. Meyer, H.-J. Werner


 NUMBER OF ELECTRONS:       1+    1-
 CONVERGENCE THRESHOLDS:    1.00E-05 (Density)    1.00E-07 (Energy)
 MAX. NUMBER OF ITERATIONS:       60
 INTERPOLATION TYPE:            DIIS
 INTERPOLATION STEPS:              2 (START)      1 (STEP)
 LEVEL SHIFTS:                  0.00 (CLOSED)  0.00 (OPEN) 



 Molecular orbitals read from record     2100.2  Type=RHF/CANONICAL (state 1.1)

 Present basis size:        7    3    3    1    7    3    3    1
 Previous basis size:       3    1    1    0    3    1    1
 Previous occupation:       1    0    0    0    0    0    0
 Previous closed-shells:    1    0    0    0    0    0    0
 Present occupation:        1    0    0    0    0    0    0    0
 Present closed-shells:     1    0    0    0    0    0    0    0
 Wavefunction symmetry:    1   Singlet 

 Orbital overlap <old|new>:  < 1.1| 1.1> = 0.999913


 Molecular orbital dump at record        2101.2

 ITERATION    DDIFF          GRAD             ENERGY        2-EL.EN.            DIPOLE MOMENTS         DIIS   ORB.
    1      0.000D+00      0.000D+00        -1.13161919      1.317236    0.00000    0.00000    0.00000    0    start

 ITER.      SQ.NORM     CORR.ENERGY   TOTAL ENERGY   ENERGY CHANGE        DEN1      VAR(S)    VAR(P)  DIIS     TIME  TIME/IT
   1      1.17667045    -0.49149136  -118.76393284    -0.04637529    -0.03323840  0.84D-03  0.29D-02  1  1     0.13     0.03
   2      1.19148547    -0.49475193  -118.76719341    -0.00326057    -0.01491922  0.23D-04  0.15D-03  2  2     0.17     0.04
   48574      RECORD LENGTH: 524288

 Memory used in sort:       0.61 MW
0.00000    0.00000    4    diag
    6      0.112D-04      0.371D-06        -1.13296546      1.317190    0.00000    0.00000    0.00000    5    diag
   3      1.19382168    -0.49489762  -118.76733910    -0.00014569    -0.00136601  0.23D-05  0.11D-04  3  3     0.21     0.04
cupancy:   1   0   0   0   0   0   0   0

 !RHF STATE  1.1 Energy                -1.132965462614
 Nuclear energy                         0.71483772
 One-electron energy                   -2.50639812
 Two-electron energy                    0.65859494
 Virial quotient                       -1.00823476
 !RHF STATE  1.1 Dipole moment          0.00000000     0.00000000     0.00000000
 Dipole moment /Debye                   0.00000000     0.00000000     0.00000000

 Orbital energies:

         1.1          2.1          3.1
     -0.594604     0.305027     1.096559

         1.2          2.2
      0.692682     3.412595

         1.3          2.3
      0.692682     3.412595

         1.4
      3.175406

         1.5          2.5
      0.167219     0.643773

         1.6          2.6
      1.120079     3.893040

         1.7          2.7
      1.120079     3.893040

         1.8
      4.085049


 HOMO      1.1    -0.594604 =     -16.1800eV
 LUMO      1.5     0.167219 =       4.5502eV
 LUMO-HOMO         0.761823 =      20.7303eV


 **********************************************************************************************************************************
 DATASETS  * FILE   NREC   LENGTH (MB)   RECORD NAMES
              1      18       29.96       500      610      700      900      950      970     1001      129      960     1100   
                                          VAR    BASINP    GEOM    SYMINP    ZMAT    AOBASIS   BASIS     P2S    ABASIS      S 
                                         1400     1410     1200     1210     1080     1600     1650     1700   
                                           T        V       H0       H01     AOSYM     SMH    MOLCAS    OPER   

              2       6        5.26       700     1000      520     2100     1001     2101   
                                         GEOM     BASIS   MCVARS     RHF     BASIS     RHF  

 PROGRAMS   *        TOTAL    HF-SCF       INT   CCSD(T)    HF-SCF       INT
 CPU TIMES  *         1.50      0.13      0.35      0.08      0.16      0.57
 REAL TIME  *         2.11 SEC
 DISK USED  *        35.27 MB (local),      315.98 MB (total)
 SF USED    *         0.00 MB
 GA USED    *         0.00 MB       (max)       0.00 MB       (current)
 **********************************************************************************************************************************
   4      1.19440293    -0.49493153  -118.76737301    -0.00003391    -0.00025918  0.11D-06  0.61D-06  4  4     0.24     0.04
.0" sf="0.0" df="282.19" eaf="33.79" ga="0.0"/>
  </jobstep><!--


 PROGRAM * CCSD (Closed-shell coupled cluster)     Authors: C. Hampel, H.-J. Werner, 1991, M. Deegan, P.J. Knowles, 1992


 Convergence thresholds:  THRVAR = 1.00D-08  THRDEN = 1.00D-06

 CCSD(T)     terms to be evaluated (factor= 1.000)


 Number of closed-shell orbitals:   1 (   1   0   0   0   0   0   0   0 )
 Number of external orbitals:      27 (   6   3   3   1   7   3   3   1 )

 Molecular orbitals read from record     2101.2  Type=RHF/CANONICAL (state 1.1)

 Number of N-1 electron functions:               1
 Number of N-2 electron functions:               1
 Number of singly external CSFs:                 6
 Number of doubly external CSFs:                75
 Total number of CSFs:                          82

 Length of J-op  integral file:               0.00 MB
 Length of K-op  integral file:               0.01 MB
 Length of 3-ext integral record:             0.00 MB

 Integral transformation finished. Total CPU:   0.00 sec, npass=  1  Memory used:   0.07 MW

 Reference energy:                     -1.13296546

 MP2 singlet pair energy:              -0.03167695
 MP2 triplet pair energy:               0.00000000
 MP2 correlation energy:               -0.03167695
 MP2 total energy:                     -1.16464242

 SCS-MP2 correlation energy:           -0.03801235   (PS=  1.200000  PT=  0.333333)
 SCS-MP2 total energy:                 -1.17097781

 ITER.      SQ.NORM     CORR.ENERGY   TOTAL ENERGY   ENERGY CHANGE        DEN1      VAR(S)    VAR(P)  DIIS     TIME  TIME/IT
   1      1.01469878    -0.03850361    -1.17146908    -0.00682666    -0.00489675  0.41D-04  0.51D-03  1  1     0.02     0.00
   2      1.01780832    -0.03935959    -1.17232505    -0.00085598    -0.00258950  0.75D-06  0.12D-04  2  2     0.02     0.00
   3      1.01816962    -0.03936328    -1.17232874    -0.00000369    -0.00018598  0.12D-06  0.42D-06  3  3     0.02     0.00
   4      1.01821785    -0.03936846    -1.17233392    -0.00000518    -0.00001643  0.32D-08  0.96D-08  4  4     0.03     0.00
   5      1.01822240    -0.03936748    -1.17233294     0.00000098    -0.00000203  0.24D-09  0.97D-10  5  5     0.03     0.00
   5      1.19447178    -0.49493286  -118.76737435    -0.00000134    -0.00002964  0.82D-08  0.46D-07  5  5     0.27     0.04
***********************
  0.01119818      S-energy:    -0.00000003      T1 diagnostic:  0.00559909
                                                                       D1 diagnostic:  0.00791831

 Doubles amplitudes (print threshold =  0.500E-01):

         I         J         SYM. A    SYM. B    A         B      T(IJ, AB)

         1         1         5         5         2         2     -0.05633533


 RESULTS
 =======

  Reference energy                     -1.132965462614
  CCSD singlet pair energy             -0.039367532935
  CCSD triplet pair energy              0.000000000000
  CCSD correlation energy              -0.039367567075

  Triples (T) contribution              0.000000000000
  Total correlation energy             -0.039367567075

  CCSD total energy                    -1.172333029689
 !CCSD(T) total energy                 -1.172333029689

 Timing summary (sec):

 STEP                 CPU(USER)    SYS     CPU(TOT)    WALL
 CCSD iterations         0.03      0.01      0.04      0.04

 Program statistics:

 Available memory in ccsd:               299999994
 Min. memory needed in ccsd:                  2126
 Max. memory used in ccsd:                    2126
 Max. memory used in cckext:                 34198 ( 6 integral passes)



 PROGRAM * RHF-SCF (CLOSED SHELL)       Authors: W. Meyer, H.-J. Werner


 NUMBER OF ELECTRONS:       4+    4-
 CONVERGENCE THRESHOLDS:    1.00E-05 (Density)    1.00E-07 (Energy)
 MAX. NUMBER OF ITERATIONS:       60
 INTERPOLATION TYPE:            DIIS
 INTERPOLATION STEPS:              2 (START)      1 (STEP)
 LEVEL SHIFTS:                  0.00 (CLOSED)  0.00 (OPEN) 



 Molecular orbitals read from record     2100.2  Type=RHF/CANONICAL (state 1.1)

 Present basis size:       23   11   17    7
 Previous basis size:      11    4    7    2
 Previous occupation:       3    0    1    0
 Previous closed-shells:    3    0    1    0
 Previous core-orbitals:    1    0    0    0
 Present occupation:        3    0    1    0
 Present closed-shells:     3    0    1    0
 Present core-orbitals:     1    0    0    0
 Wavefunction symmetry:    1   Singlet 

 Orbital overlap <old|new>:  < 1.1| 1.1> = 0.999998   < 2.1| 2.1> = 0.999929   < 3.1| 3.1> = 0.999731   < 1.3| 1.3> = 0.999863


 Molecular orbital dump at record        2101.2
   6      1.19447759    -0.49493165  -118.76737314     0.00000121    -0.00000425  0.38D-09  0.32D-08  6  6     0.30     0.04
    0.04 MB
 GA USED    *         0.00 MB       (max)       0.00 MB       (current)
 **********************************************************************************************************************************
 diag
   7      1.19447682    -0.49493190  -118.76737338    -0.00000024     0.00000050  0.84D-10  0.23D-09  6  1     0.33     0.04
 0.174D-02      0.154D-03       -38.89227546     37.286624    0.00000    0.00000   -0.75648    3    diag
p command="HF-SCF" commandset="SCFPRO">
   <!--


 Recomputing integrals since basis changed


 Using spherical harmonics

 Library entry H      S cc-pVQZ              selected for orbital group  1
 Library entry H      P cc-pVQZ              selected for orbital group  1
 Library entry H      D cc-pVQZ              selected for orbital group  1
 Library entry H      F cc-pVQZ              selected for orbital group  1


 PROGRAM * SEWARD (Integral evaluation for generally contracted gaussian basis sets)     Author: Roland Lindh, 1990

 Geometry written to block  1 of record 700


 Point group  D2h 



 ATOMIC COORDINATES

 NR  ATOM    CHARGE       X              Y              Z

   1  H       1.00    0.000000000    0.000000000    0.699459448
   2  H       1.00    0.000000000    0.000000000   -0.699459448

 Bond lengths in Bohr (Angstrom)

 1-2  1.398918897
     ( 0.740276000)

 NUCLEAR CHARGE:                    2
 NUMBER OF PRIMITIVE AOS:          74
 NUMBER OF SYMMETRY AOS:           64
 NUMBER OF CONTRACTIONS:           60   (   13Ag  +    7B3u +    7B2u +    3B1g +   13B1u +    7B2g +    7B3g +    3Au  )
 NUMBER OF CORE ORBITALS:           0   (    0Ag  +    0B3u +    0B2u +    0B1g +    0B1u +    0B2g +    0B3g +    0Au  )
 NUMBER OF VALENCE ORBITALS:        2   (    1Ag  +    0B3u +    0B2u +    0B1g +    1B1u +    0B2g +    0B3g +    0Au  )


 NUCLEAR REPULSION ENERGY    0.71483772

    5      0.293D-03      0.427D-04       -38.89227590     37.286306    0.00000    0.00000   -0.75812    4    diag
 1 1 2
 EXTRA SYMMETRY OF AOS IN SYMMETRY 3:   1 1 1 1 1 1 2
 EXTRA SYMMETRY OF AOS IN SYMMETRY 5:   1 1 1 1 1 1 1 1 2 1   2 1 2
 EXTRA SYMMETRY OF AOS IN SYMMETRY 6:   1 1 1 1 1 1 2
 EXTRA SYMMETRY OF AOS IN SYMMETRY 7:   1 1 1 1 1 1 2

 Eigenvalues of metric

         1 0.108E-02 0.138E-01 0.602E-01 0.160E+00 0.495E+00 0.500E+00 0.879E+00 0.119E+01
         2 0.129E+00 0.230E+00 0.661E+00 0.118E+01 0.125E+01 0.176E+01 0.379E+01
         3 0.129E+00 0.230E+00 0.661E+00 0.118E+01 0.125E+01 0.176E+01 0.379E+01
         4 0.495E+00 0.119E+01 0.241E+01
         5 0.202E-03 0.107E-02 0.530E-02 0.271E-01 0.974E-01 0.164E+00 0.190E+00 0.357E+00
         6 0.735E-02 0.575E-01 0.180E+00 0.473E+00 0.745E+00 0.131E+01 0.222E+01
         7 0.735E-02 0.575E-01 0.180E+00 0.473E+00 0.745E+00 0.131E+01 0.222E+01
         8 0.164E+00 0.357E+00 0.138E+01


 Contracted 2-electron integrals neglected if value below      1.0D-11
    6      0.121D-03      0.402D-05       -38.89227590     37.286438    0.00000    0.00000   -0.75826    5    diag
    7      0.127D-04      0.595D-06       -38.89227590     37.286407    0.00000    0.00000   -0.75827    6    diag
   8      1.19447670    -0.49493195  -118.76737344    -0.00000005     0.00000013  0.43D-11  0.15D-10  6  2     0.40     0.04

 Norm of t1 vector:      0.03881643      S-energy:    -0.00000002      T1 diagnostic:  0.00613742
                                                                       D1 diagnostic:  0.01112806
9027632"/><!--
 Nuclear energy                         6.03098734
 One-electron energy                  -63.56647051
 Two-electron energy                   18.64320727
 Virial quotient                       -1.00104723
 !RHF STATE  1.1 Dipole moment          0.00000000     0.00000000    -0.75827292
 Dipole moment /Debye                   0.00000000     0.00000000    -1.92721129

 Orbital energies:

         1.1          2.1          3.1          4.1          5.1
    -11.290805    -0.891323    -0.395306     0.149955     0.442018

         1.2          2.2
      0.049149     0.499257

         1.3          2.3          3.3
     -0.562594     0.217476     0.372888

         1.4          2.4
      0.747707     1.218522


 HOMO      3.1    -0.395306 =     -10.7568eV
 LUMO      1.2     0.049149 =       1.3374eV
 LUMO-HOMO         0.444455 =      12.0942eV


 **********************************************************************************************************************************
 DATASETS  * FILE   NREC   LENGTH (MB)   RECORD NAMES
              1      18       30.03       500      610      700      900      950      970     1001      129      960     1100   
                                          VAR    BASINP    GEOM    SYMINP    ZMAT    AOBASIS   BASIS     P2S    ABASIS      S 
                                         1400     1410     1200     1210     1080     1600     1650     1700   
                                           T        V       H0       H01     AOSYM     SMH    MOLCAS    OPER   

              2       6        5.31       700     1000      520     2100     1001     2101   
                                         GEOM     BASIS   MCVARS     RHF     BASIS     RHF  

 PROGRAMS   *        TOTAL    HF-SCF       INT   CCSD(T)    HF-SCF       INT
 CPU TIMES  *         1.74      0.12      0.52      0.07      0.21      0.62
 REAL TIME  *         2.33 SEC
 DISK USED  *        35.44 MB (local),      319.41 MB (total)
 SF USED    *         0.12 MB
 GA USED    *         0.00 MB       (max)       0.00 MB       (current)
 **********************************************************************************************************************************


 Total CPU time for triples:      0.11 sec


 RESULTS
 =======

  Reference energy                   -118.272441484542
  CCSD singlet pair energy             -0.358718783322
  CCSD triplet pair energy             -0.136213152417
  CCSD correlation energy              -0.494931951068

  Triples (T) contribution             -0.013153739871
  Total correlation energy             -0.508085690939

  CCSD total energy                  -118.767373435609
  CCSD[T] energy                     -118.780772218956
  CCSD-T energy                      -118.780394241873
 !CCSD(T) total energy               -118.780527175481

 Timing summary (sec):

 STEP                 CPU(USER)    SYS     CPU(TOT)    WALL
 Transformation          0.07      0.04      0.11      0.11
 CCSD iterations         0.33      0.08      0.41      0.40
 Triples                 0.11      0.01      0.12      0.13

 Program statistics:

 Available memory in ccsd:               299999594
 Min. memory needed in ccsd:                186290
 Max. memory used in ccsd:                  236183
 Max. memory used in cckext:                260458 ( 8 integral passes)

.08727049    -0.16428102   -39.05655692    -0.00007347    -0.00036991  0.18D-06  0.36D-05  5  5     0.04     0.01
   6      1.08814785    -0.16428408   -39.05655998    -0.00000306    -0.00004021  0.13D-06  0.49D-06  6  6     0.04     0.00
   7      1.08831166    -0.16428970   -39.05656560    -0.00000562    -0.00000139  0.31D-07  0.41D-07  6  1     0.05     0.00
   8      1.08833617    -0.16428940   -39.05656530     0.00000030    -0.00000004  0.59D-08  0.23D-08  6  2     0.05     0.00
   9      1.08833671    -0.16428905   -39.05656495     0.00000035    -0.00000071  0.10D-08  0.25D-09  6  3     0.05     0.00

 Norm of t1 vector:      0.03160630      S-energy:     0.00000038      T1 diagnostic:  0.00912395
                                                                       D1 diagnostic:  0.01941311

 Doubles amplitudes (print threshold =  0.500E-01):

         I         J         SYM. A    SYM. B    A         B      T(IJ, AB)

         2         2         2         2         1         1     -0.12357324


 Total CPU time for triples:      0.00 sec


 RESULTS
 =======

  Reference energy                    -38.892275902763
  CCSD singlet pair energy             -0.133725354932
  CCSD triplet pair energy             -0.030564078575
  CCSD correlation energy              -0.164289048902

  Triples (T) contribution             -0.004817819209
  Total correlation energy             -0.169106868110

  CCSD total energy                   -39.056564951665
  CCSD[T] energy                      -39.061466312226
  CCSD-T energy                       -39.061336244311
 !CCSD(T) total energy                -39.061382770874

 Timing summary (sec):

 STEP                 CPU(USER)    SYS     CPU(TOT)    WALL
 Transformation          0.01      0.01      0.02      0.01
 CCSD iterations         0.05      0.01      0.06      0.07

 Program statistics:

 Available memory in ccsd:               299999958
 Min. memory needed in ccsd:                 25276
 Max. memory used in ccsd:                   27528
 Max. memory used in cckext:                 59237 ( 9 integral passes)



 **********************************************************************************************************************************
 DATASETS  * FILE   NREC   LENGTH (MB)   RECORD NAMES
              1      19       30.63       500      610      700      900      950      970     1001      129      960     1100   
                                          VAR    BASINP    GEOM    SYMINP    ZMAT    AOBASIS   BASIS     P2S    ABASIS      S 
                                         1400     1410     1200     1210     1080     1600     1650     1700     1380   
                                           T        V       H0       H01     AOSYM     SMH    MOLCAS    OPER     JKOP   

              2       6        5.31       700     1000      520     2100     1001     2101   
                                         GEOM     BASIS   MCVARS     RHF     BASIS     RHF  

 PROGRAMS   *        TOTAL   CCSD(T)    HF-SCF       INT   CCSD(T)    HF-SCF       INT
 CPU TIMES  *         1.84      0.08      0.12      0.52      0.07      0.21      0.62
 REAL TIME  *         2.45 SEC
 DISK USED  *        36.48 MB (local),      324.21 MB (total)
 SF USED    *         1.04 MB
 GA USED    *         0.00 MB       (max)       0.00 MB       (current)
 **********************************************************************************************************************************


 **********************************************************************************************************************************
 DATASETS  * FILE   NREC   LENGTH (MB)   RECORD NAMES
              1      19       34.78       500      610      700      900      950      970     1000      129      960     1100   
                                          VAR    BASINP    GEOM    SYMINP    ZMAT    AOBASIS   BASIS     P2S    ABASIS      S 
                                         1400     1410     1200     1210     1080     1600     1650     1700     1380   
                                           T        V       H0       H01     AOSYM     SMH    MOLCAS    OPER     JKOP   

              2       4        2.96       700     1000      520     2100   
                                         GEOM     BASIS   MCVARS     RHF  

 PROGRAMS   *        TOTAL   CCSD(T)    HF-SCF       INT
 CPU TIMES  *         1.90      0.56      0.31      0.81
 REAL TIME  *         2.50 SEC
 DISK USED  *        44.30 MB (local),      350.22 MB (total)
 SF USED    *        10.37 MB
 GA USED    *         0.00 MB       (max)       0.00 MB       (current)
 **********************************************************************************************************************************
 Y              Z

   1  C       6.00    0.000000000    0.000000000    0.330730418
   2  H       1.00    0.000000000    1.626517511   -0.992193143
   3  H       1.00    0.000000000   -1.626517511   -0.992193143

 Bond lengths in Bohr (Angstrom)

 1-2  2.096589125  1-3  2.096589125
     ( 1.109467186)     ( 1.109467186)

 Bond angles

  2-1-3  101.75382474

 NUCLEAR CHARGE:                    8
 NUMBER OF PRIMITIVE AOS:         157
 NUMBER OF SYMMETRY AOS:          132
 NUMBER OF CONTRACTIONS:          115   (   42A1  +   23B1  +   33B2  +   17A2  )
 NUMBER OF CORE ORBITALS:           1   (    1A1  +    0B1  +    0B2  +    0A2  )
 NUMBER OF VALENCE ORBITALS:        6   (    3A1  +    1B1  +    2B2  +    0A2  )


 NUCLEAR REPULSION ENERGY    6.03098734

 Eigenvalues of metric

         1 0.229E-03 0.510E-03 0.198E-02 0.476E-02 0.641E-02 0.103E-01 0.127E-01 0.334E-01
         2 0.627E-02 0.158E-01 0.508E-01 0.133E+00 0.147E+00 0.168E+00 0.287E+00 0.350E+00
         3 0.325E-03 0.188E-02 0.549E-02 0.120E-01 0.141E-01 0.161E-01 0.464E-01 0.506E-01
         4 0.140E-01 0.534E-01 0.148E+00 0.254E+00 0.297E+00 0.354E+00 0.481E+00 0.547E+00


 Contracted 2-electron integrals neglected if value below      1.0D-11
 SETTING BASIS          =    VTZ


 Recomputing integrals since basis changed


 Using spherical harmonics

 Library entry C      S cc-pVTZ              selected for orbital group  1
 Library entry C      P cc-pVTZ              selected for orbital group  1
 Library entry C      D cc-pVTZ              selected for orbital group  1
 Library entry C      F cc-pVTZ              selected for orbital group  1
 Library entry H      S cc-pVTZ              selected for orbital group  2
 Library entry H      P cc-pVTZ              selected for orbital group  2
 Library entry H      D cc-pVTZ              selected for orbital group  2


 PROGRAM * SEWARD (Integral evaluation for generally contracted gaussian basis sets)     Author: Roland Lindh, 1990

 Geometry written to block  1 of record 700


 Point group  C2v 



 ATOMIC COORDINATES

 NR  ATOM    CHARGE       X              Y              Z

   1  C       6.00    0.000000000    2.392476422   -0.493798664
   2  C       6.00    0.000000000   -2.392476422   -0.493798664
   3  C       6.00    0.000000000    0.000000000    1.120360038
   4  H       1.00    0.000000000    4.097610319    0.668203378
   5  H       1.00    0.000000000   -4.097610319    0.668203378
   6  H       1.00    1.667566142    2.452031140   -1.712284621
   7  H       1.00   -1.667566142    2.452031140   -1.712284621
   8  H       1.00    1.667566142   -2.452031140   -1.712284621
   9  H       1.00   -1.667566142   -2.452031140   -1.712284621
  10  H       1.00   -1.655961334    0.000000000    2.358068288
  11  H       1.00    1.655961334    0.000000000    2.358068288

 Bond lengths in Bohr (Angstrom)

 1-3  2.886078957  1-4  2.063426847  1-6  2.066163505  1-7  2.066163505  2-3  2.886078957
     ( 1.527247213)     ( 1.091918464)     ( 1.093366641)     ( 1.093366641)     ( 1.527247213)

  2- 5  2.063426847   2- 8  2.066163505   2- 9  2.066163505   3-10  2.067396830   3-11  2.067396830
       ( 1.091918464)       ( 1.093366641)       ( 1.093366641)       ( 1.094019288)       ( 1.094019288)

 Bond angles

  1- 3- 2  111.98640601   1- 3-10  109.56258043   1- 3-11  109.56258043   2- 3-10  109.56258043

  2- 3-11  109.56258043   3- 1- 4  111.71984468   3- 1- 6  110.71544122   3- 1- 7  110.71544122

  3-2-5  111.71984468   3-2-8  110.71544122   3-2-9  110.71544122   4-1-6  107.95589492

  4-1-7  107.95589492   5-2-8  107.95589492   5-2-9  107.95589492   6-1-7  107.62387369

  8- 2- 9  107.62387369  10- 3-11  106.44922516

 NUCLEAR CHARGE:                   26
 NUMBER OF PRIMITIVE AOS:         277
 NUMBER OF SYMMETRY AOS:          254
 NUMBER OF CONTRACTIONS:          202   (   67A1  +   45B1  +   55B2  +   35A2  )
 NUMBER OF CORE ORBITALS:           3   (    2A1  +    0B1  +    1B2  +    0A2  )
 NUMBER OF VALENCE ORBITALS:       20   (    8A1  +    4B1  +    6B2  +    2A2  )


 NUCLEAR REPULSION ENERGY   82.63933231

 Eigenvalues of metric

         1 0.987E-03 0.114E-02 0.143E-02 0.166E-02 0.308E-02 0.436E-02 0.909E-02 0.106E-01
         2 0.129E-02 0.167E-02 0.804E-02 0.841E-02 0.131E-01 0.186E-01 0.266E-01 0.370E-01
         3 0.111E-02 0.146E-02 0.176E-02 0.302E-02 0.731E-02 0.967E-02 0.131E-01 0.175E-01
         4 0.164E-02 0.993E-02 0.139E-01 0.181E-01 0.299E-01 0.484E-01 0.770E-01 0.103E+00


 Contracted 2-electron integrals neglected if value below      1.0D-11
S
              1      18       29.99       500      610      700      900      950      970     1002      129      960     1100   
                                          VAR    BASINP    GEOM    SYMINP    ZMAT    AOBASIS   BASIS     P2S    ABASIS      S 
                                         1400     1410     1200     1210     1080     1600     1650     1700   
                                           T        V       H0       H01     AOSYM     SMH    MOLCAS    OPER   

              2       7        5.29       700     1000      520     2100     1001     2101     1002   
                                         GEOM     BASIS   MCVARS     RHF     BASIS     RHF     BASIS   

 PROGRAMS   *        TOTAL       INT   CCSD(T)    HF-SCF       INT   CCSD(T)    HF-SCF       INT
 CPU TIMES  *         1.91      0.31      0.07      0.13      0.35      0.08      0.16      0.57
 REAL TIME  *         2.65 SEC
 DISK USED  *        35.32 MB (local),      317.87 MB (total)
 SF USED    *         0.04 MB
 GA USED    *         0.00 MB       (max)       0.00 MB       (current)
 **********************************************************************************************************************************


 PROGRAM * RHF-SCF (CLOSED SHELL)       Authors: W. Meyer, H.-J. Werner


 NUMBER OF ELECTRONS:       1+    1-
 CONVERGENCE THRESHOLDS:    1.00E-05 (Density)    1.00E-07 (Energy)
 MAX. NUMBER OF ITERATIONS:       60
 INTERPOLATION TYPE:            DIIS
 INTERPOLATION STEPS:              2 (START)      1 (STEP)
 LEVEL SHIFTS:                  0.00 (CLOSED)  0.00 (OPEN) 



 Molecular orbitals read from record     2101.2  Type=RHF/CANONICAL (state 1.1)

 Present basis size:       13    7    7    3   13    7    7    3
 Previous basis size:       7    3    3    1    7    3    3    1
 Previous occupation:       1    0    0    0    0    0    0    0
 Previous closed-shells:    1    0    0    0    0    0    0    0
 Present occupation:        1    0    0    0    0    0    0    0
 Present closed-shells:     1    0    0    0    0    0    0    0
 Wavefunction symmetry:    1   Singlet 

 Orbital overlap <old|new>:  < 1.1| 1.1> = 0.999991


 Molecular orbital dump at record        2102.2

 ITERATION    DDIFF          GRAD             ENERGY        2-EL.EN.            DIPOLE MOMENTS         DIIS   ORB.
    1      0.000D+00      0.000D+00        -1.13332901      1.317157    0.00000    0.00000    0.00000    0    start
    2      0.000D+00      0.613D-02        -1.13346194      1.317190    0.00000    0.00000    0.00000    1    diag
    3      0.115D-01      0.487D-03        -1.13346444      1.317316    0.00000    0.00000    0.00000    2    diag
    4      0.833D-03      0.500D-04        -1.13346449      1.317382    0.00000    0.00000    0.00000    3    diag
    5      0.741D-04      0.323D-05        -1.13346449      1.317392    0.00000    0.00000    0.00000    4    diag
    6      0.237D-05      0.102D-06        -1.13346449      1.317393    0.00000    0.00000    0.00000    0    orth

 Final occupancy:   1   0   0   0   0   0   0   0

 !RHF STATE  1.1 Energy                -1.133464493031
 Nuclear energy                         0.71483772
 One-electron energy                   -2.50699852
 Two-electron energy                    0.65869630
 Virial quotient                       -1.00645865
 !RHF STATE  1.1 Dipole moment          0.00000000     0.00000000     0.00000000
 Dipole moment /Debye                   0.00000000     0.00000000     0.00000000

 Orbital energies:

         1.1          2.1          3.1
     -0.594803     0.231526     0.802536

         1.2          2.2
      0.510080     2.153881

         1.3          2.3
      0.510080     2.153881

         1.4          2.4
      1.942049     6.238909

         1.5          2.5
      0.147714     0.522011

         1.6          2.6
      0.814837     2.361569

         1.7          2.7
      0.814837     2.361569

         1.8          2.8
      2.554476     7.610929


 HOMO      1.1    -0.594803 =     -16.1854eV
 LUMO      1.5     0.147714 =       4.0195eV
 LUMO-HOMO         0.742517 =      20.2049eV


 **********************************************************************************************************************************
 DATASETS  * FILE   NREC   LENGTH (MB)   RECORD NAMES
              1      18       29.99       500      610      700      900      950      970     1002      129      960     1100   
                                          VAR    BASINP    GEOM    SYMINP    ZMAT    AOBASIS   BASIS     P2S    ABASIS      S 
                                         1400     1410     1200     1210     1080     1600     1650     1700   
                                           T        V       H0       H01     AOSYM     SMH    MOLCAS    OPER   

              2       8        7.78       700     1000      520     2100     1001     2101     1002     2102   
                                         GEOM     BASIS   MCVARS     RHF     BASIS     RHF     BASIS     RHF  

 PROGRAMS   *        TOTAL    HF-SCF       INT   CCSD(T)    HF-SCF       INT   CCSD(T)    HF-SCF       INT
 CPU TIMES  *         2.09      0.18      0.31      0.07      0.13      0.35      0.08      0.16      0.57
 REAL TIME  *         2.88 SEC
 DISK USED  *        37.85 MB (local),      338.12 MB (total)
 SF USED    *         0.04 MB
 GA USED    *         0.00 MB       (max)       0.00 MB       (current)
 **********************************************************************************************************************************
 Molecular orbitals read from record     2102.2  Type=RHF/CANONICAL (state 1.1)
 Occupation numbers read from record     2102.2  Type=RHF/RHF (state 1.1)
 Orbital energies read from record       2102.2  Type=RHF/CANONICAL (state 1.1)
 Redundancy group numbers read from rec  2102.2  Type=RHF/RHF (state 1.1)

 HF/cc-pVQZ energy=     -1.133464493031

          HF-SCF         CCSD(T)          HF-SCF         CCSD(T)          HF-SCF
     -1.13346449     -1.17233303     -1.13296546     -1.16338250     -1.12870326
 **********************************************************************************************************************************
 Molpro calculation terminated
 Nuclear energy                         6.03098734
 One-electron energy                  -63.56296918
 Two-electron energy                   18.63693771
 Virial quotient                       -1.00085303
 !RHF STATE  1.1 Dipole moment          0.00000000     0.00000000    -0.74956777
 Dipole moment /Debye                   0.00000000     0.00000000    -1.90508645

 Orbital energies:

         1.1          2.1          3.1          4.1          5.1
    -11.291918    -0.892179    -0.396540     0.122218     0.325666

         1.2          2.2
      0.042163     0.381373

         1.3          2.3          3.3
     -0.563910     0.187968     0.290759

         1.4          2.4
      0.570965     0.894109


 HOMO      3.1    -0.396540 =     -10.7904eV
 LUMO      1.2     0.042163 =       1.1473eV
 LUMO-HOMO         0.438704 =      11.9377eV


 **********************************************************************************************************************************
 DATASETS  * FILE   NREC   LENGTH (MB)   RECORD NAMES
              1      18       30.15       500      610      700      900      950      970     1002      129      960     1100   
                                          VAR    BASINP    GEOM    SYMINP    ZMAT    AOBASIS   BASIS     P2S    ABASIS      S 
                                         1400     1410     1200     1210     1080     1600     1650     1700   
                                           T        V       H0       H01     AOSYM     SMH    MOLCAS    OPER   

              2       8        7.92       700     1000      520     2100     1001     2101     1002     2102   
                                         GEOM     BASIS   MCVARS     RHF     BASIS     RHF     BASIS     RHF  

 PROGRAMS   *        TOTAL    HF-SCF       INT   CCSD(T)    HF-SCF       INT   CCSD(T)    HF-SCF       INT
 CPU TIMES  *         2.93      0.13      0.92      0.08      0.12      0.52      0.07      0.21      0.62
 REAL TIME  *         3.70 SEC
 DISK USED  *        38.34 MB (local),      400.51 MB (total)
 SF USED    *         1.04 MB
 GA USED    *         0.00 MB       (max)       0.00 MB       (current)
 **********************************************************************************************************************************
 Molecular orbitals read from record     2102.2  Type=RHF/CANONICAL (state 1.1)
 Occupation numbers read from record     2102.2  Type=RHF/RHF (state 1.1)
 Orbital energies read from record       2102.2  Type=RHF/CANONICAL (state 1.1)
 Redundancy group numbers read from rec  2102.2  Type=RHF/RHF (state 1.1)

 HF/cc-pVQZ energy=    -38.895044130190

          HF-SCF         CCSD(T)          HF-SCF         CCSD(T)          HF-SCF
    -38.89504413    -39.06138277    -38.89227590    -39.02215774    -38.88107087
 **********************************************************************************************************************************
 Molpro calculation terminated
 Nuclear energy                        82.63933231
 One-electron energy                 -321.63723898
 Two-electron energy                  120.69027560
 Virial quotient                       -1.00129065
 !RHF STATE  1.1 Dipole moment          0.00000000     0.00000000     0.03225743
 Dipole moment /Debye                   0.00000000     0.00000000     0.08198483

 Orbital energies:

         1.1          2.1          3.1          4.1          5.1          6.1          7.1          8.1
    -11.216959   -11.209127    -1.052575    -0.799350    -0.597381    -0.475282     0.140894     0.184345

         1.2          2.2          3.2          4.2
     -0.623692    -0.467955     0.191152     0.232834

         1.3          2.3          3.3          4.3          5.3          6.3
    -11.209163    -0.923945    -0.548696    -0.474514     0.177949     0.243537

         1.4          2.4          3.4
     -0.529707     0.264489     0.378476


 HOMO      2.2    -0.467955 =     -12.7337eV
 LUMO      7.1     0.140894 =       3.8339eV
 LUMO-HOMO         0.608849 =      16.5676eV


 **********************************************************************************************************************************
 DATASETS  * FILE   NREC   LENGTH (MB)   RECORD NAMES
              1      18       30.59       500      610      700      900      950      970     1001      129      960     1100   
                                          VAR    BASINP    GEOM    SYMINP    ZMAT    AOBASIS   BASIS     P2S    ABASIS      S 
                                         1400     1410     1200     1210     1080     1600     1650     1700   
                                           T        V       H0       H01     AOSYM     SMH    MOLCAS    OPER   

              2       6        5.76       700     1000      520     2100     1001     2101   
                                         GEOM     BASIS   MCVARS     RHF     BASIS     RHF  

 PROGRAMS   *        TOTAL    HF-SCF       INT   CCSD(T)    HF-SCF       INT
 CPU TIMES  *         4.68      0.25      2.51      0.56      0.31      0.81
 REAL TIME  *         6.13 SEC
 DISK USED  *        44.30 MB (local),        1.23 GB (total)
 SF USED    *        10.37 MB
 GA USED    *         0.00 MB       (max)       0.00 MB       (current)
 **********************************************************************************************************************************


 PROGRAM * CCSD (Closed-shell coupled cluster)     Authors: C. Hampel, H.-J. Werner, 1991, M. Deegan, P.J. Knowles, 1992


 Convergence thresholds:  THRVAR = 1.00D-08  THRDEN = 1.00D-06

 CCSD(T)     terms to be evaluated (factor= 1.000)


 Number of core orbitals:           3 (   2   0   1   0 )
 Number of closed-shell orbitals:  10 (   4   2   3   1 )
 Number of external orbitals:     189 (  61  43  51  34 )

 Molecular orbitals read from record     2101.2  Type=RHF/CANONICAL (state 1.1)

 Number of N-1 electron functions:              10
 Number of N-2 electron functions:              55
 Number of singly external CSFs:               517
 Number of doubly external CSFs:            450088
 Total number of CSFs:                      450606

 Length of J-op  integral file:               0.00 MB
 Length of K-op  integral file:               0.74 MB
 Length of 3-ext integral record:             0.00 MB

 Memory could be reduced to 22.52 Mwords without degradation in triples

 Integral transformation finished. Total CPU:   0.59 sec, npass=  1  Memory used:   3.86 MW

 Reference energy:                   -118.30763108

 MP2 singlet pair energy:              -0.37385949
 MP2 triplet pair energy:              -0.17029391
 MP2 correlation energy:               -0.54415340
 MP2 total energy:                   -118.85178448

 SCS-MP2 correlation energy:           -0.55459204   (PS=  1.200000  PT=  0.333333)
 SCS-MP2 total energy:               -118.86222312

 ITER.      SQ.NORM     CORR.ENERGY   TOTAL ENERGY   ENERGY CHANGE        DEN1      VAR(S)    VAR(P)  DIIS     TIME  TIME/IT
   1      1.18854897    -0.58268268  -118.89031376    -0.03852928    -0.02465357  0.14D-02  0.27D-02  1  1     0.79     0.21
   2      1.20199899    -0.58530582  -118.89293690    -0.00262314    -0.01389927  0.28D-04  0.24D-03  2  2     1.01     0.24
   3      1.20551690    -0.58538865  -118.89301973    -0.00008283    -0.00228062  0.39D-05  0.14D-04  3  3     1.23     0.26
   4      1.20635962    -0.58541634  -118.89304742    -0.00002769    -0.00037856  0.30D-06  0.78D-06  4  4     1.45     0.26
   5      1.20647701    -0.58541779  -118.89304886    -0.00000144    -0.00004454  0.30D-07  0.63D-07  5  5     1.69     0.27
   6      1.20649124    -0.58541595  -118.89304703     0.00000184    -0.00000593  0.38D-08  0.43D-08  6  6     1.93     0.28
   7      1.20649078    -0.58541581  -118.89304688     0.00000014     0.00000020  0.40D-09  0.37D-09  6  2     2.15     0.28
   8      1.20649109    -0.58541582  -118.89304689    -0.00000001    -0.00000028  0.53D-10  0.29D-10  6  1     2.39     0.28

 Norm of t1 vector:      0.04938751      S-energy:    -0.00000025      T1 diagnostic:  0.00780885
                                                                       D1 diagnostic:  0.01415226


 Total CPU time for triples:      3.92 sec


 RESULTS
 =======

  Reference energy                   -118.307631077170
  CCSD singlet pair energy             -0.424555372166
  CCSD triplet pair energy             -0.160860189713
  CCSD correlation energy              -0.585415816844

  Triples (T) contribution             -0.021010205996
  Total correlation energy             -0.606426022840

  CCSD total energy                  -118.893046894014
  CCSD[T] energy                     -118.914547309313
  CCSD-T energy                      -118.913839196409
 !CCSD(T) total energy               -118.914057100010

 Timing summary (sec):

 STEP                 CPU(USER)    SYS     CPU(TOT)    WALL
 Transformation          0.59      0.25      0.84      0.85
 CCSD iterations         1.80      0.46      2.26      2.27
 Triples                 3.92      0.14      4.06      4.09

 Program statistics:

 Available memory in ccsd:               299999588
 Min. memory needed in ccsd:               1254723
 Max. memory used in ccsd:                 1649455
 Max. memory used in cckext:               1551989 ( 8 integral passes)



 **********************************************************************************************************************************
 DATASETS  * FILE   NREC   LENGTH (MB)   RECORD NAMES
              1      19      106.25       500      610      700      900      950      970     1001      129      960     1100   
                                          VAR    BASINP    GEOM    SYMINP    ZMAT    AOBASIS   BASIS     P2S    ABASIS      S 
                                         1400     1410     1200     1210     1080     1600     1650     1700     1380   
                                           T        V       H0       H01     AOSYM     SMH    MOLCAS    OPER     JKOP   

              2       6        5.76       700     1000      520     2100     1001     2101   
                                         GEOM     BASIS   MCVARS     RHF     BASIS     RHF  

 PROGRAMS   *        TOTAL   CCSD(T)    HF-SCF       INT   CCSD(T)    HF-SCF       INT
 CPU TIMES  *        11.02      6.34      0.25      2.51      0.56      0.31      0.81
 REAL TIME  *        13.39 SEC
 DISK USED  *       159.95 MB (local),        1.87 GB (total)
 SF USED    *       115.28 MB
 GA USED    *         0.00 MB       (max)       0.00 MB       (current)
 **********************************************************************************************************************************
 SETTING BASIS          =    VQZ


 Recomputing integrals since basis changed


 Using spherical harmonics

 Library entry C      S cc-pVQZ              selected for orbital group  1
 Library entry C      P cc-pVQZ              selected for orbital group  1
 Library entry C      D cc-pVQZ              selected for orbital group  1
 Library entry C      F cc-pVQZ              selected for orbital group  1
 Library entry C      G cc-pVQZ              selected for orbital group  1
 Library entry H      S cc-pVQZ              selected for orbital group  2
 Library entry H      P cc-pVQZ              selected for orbital group  2
 Library entry H      D cc-pVQZ              selected for orbital group  2
 Library entry H      F cc-pVQZ              selected for orbital group  2


 PROGRAM * SEWARD (Integral evaluation for generally contracted gaussian basis sets)     Author: Roland Lindh, 1990

 Geometry written to block  1 of record 700


 Point group  C2v 



 ATOMIC COORDINATES

 NR  ATOM    CHARGE       X              Y              Z

   1  C       6.00    0.000000000    2.392476422   -0.493798664
   2  C       6.00    0.000000000   -2.392476422   -0.493798664
   3  C       6.00    0.000000000    0.000000000    1.120360038
   4  H       1.00    0.000000000    4.097610319    0.668203378
   5  H       1.00    0.000000000   -4.097610319    0.668203378
   6  H       1.00    1.667566142    2.452031140   -1.712284621
   7  H       1.00   -1.667566142    2.452031140   -1.712284621
   8  H       1.00    1.667566142   -2.452031140   -1.712284621
   9  H       1.00   -1.667566142   -2.452031140   -1.712284621
  10  H       1.00   -1.655961334    0.000000000    2.358068288
  11  H       1.00    1.655961334    0.000000000    2.358068288

 Bond lengths in Bohr (Angstrom)

 1-3  2.886078957  1-4  2.063426847  1-6  2.066163505  1-7  2.066163505  2-3  2.886078957
     ( 1.527247213)     ( 1.091918464)     ( 1.093366641)     ( 1.093366641)     ( 1.527247213)

  2- 5  2.063426847   2- 8  2.066163505   2- 9  2.066163505   3-10  2.067396830   3-11  2.067396830
       ( 1.091918464)       ( 1.093366641)       ( 1.093366641)       ( 1.094019288)       ( 1.094019288)

 Bond angles

  1- 3- 2  111.98640601   1- 3-10  109.56258043   1- 3-11  109.56258043   2- 3-10  109.56258043

  2- 3-11  109.56258043   3- 1- 4  111.71984468   3- 1- 6  110.71544122   3- 1- 7  110.71544122

  3-2-5  111.71984468   3-2-8  110.71544122   3-2-9  110.71544122   4-1-6  107.95589492

  4-1-7  107.95589492   5-2-8  107.95589492   5-2-9  107.95589492   6-1-7  107.62387369

  8- 2- 9  107.62387369  10- 3-11  106.44922516

 NUCLEAR CHARGE:                   26
 NUMBER OF PRIMITIVE AOS:         545
 NUMBER OF SYMMETRY AOS:          460
 NUMBER OF CONTRACTIONS:          405   (  127A1  +   93B1  +  108B2  +   77A2  )
 NUMBER OF CORE ORBITALS:           3   (    2A1  +    0B1  +    1B2  +    0A2  )
 NUMBER OF VALENCE ORBITALS:       20   (    8A1  +    4B1  +    6B2  +    2A2  )


 NUCLEAR REPULSION ENERGY   82.63933231


 Eigenvalues of metric

         1 0.103E-03 0.125E-03 0.253E-03 0.301E-03 0.431E-03 0.468E-03 0.809E-03 0.121E-02
         2 0.183E-03 0.257E-03 0.136E-02 0.157E-02 0.273E-02 0.364E-02 0.398E-02 0.480E-02
         3 0.105E-03 0.206E-03 0.316E-03 0.566E-03 0.656E-03 0.137E-02 0.201E-02 0.284E-02
         4 0.240E-03 0.122E-02 0.212E-02 0.387E-02 0.456E-02 0.537E-02 0.722E-02 0.842E-02


 Contracted 2-electron integrals neglected if value below      1.0D-11
 AO integral compression algorithm  1   Integral accuracy      1.0D-11

     3947.102 MB (compressed) written to integral file ( 48.7%)

     Node minimum: 387.973 MB, node maximum: 580.911 MB

445406606049E-02 0.0 0.269457246446521E-04 0.192396175860693E-03 0.186438386839409E-03 0.157125110259519E-03
      0.0 -0.415251666960828E-03 0.0 -0.222589870044469E-03 0.0 -0.440507547573501 0.104426641575677E-01 0.697346630332121E-01 0.627872537775417E-01 0.0
      -0.11734610451798E-02 0.17900912539305E-02 0.0 -0.52293237762654E-02 0.757452868397926E-02 0.0 -0.176988126210965E-02 0.752515495464923E-02 0.385491358571124E-03 -0.157841835716872E-03
      -0.227649522854252E-03 0.0 0.0 0.779259269631586E-03 0.674919651024605E-03 -0.131048937328054E-03 -0.543870713696551E-03 0.0 0.0 0.222445406606049E-02
      0.0 0.269457246446521E-04 -0.192396175860693E-03 0.186438386839409E-03 -0.157125110259519E-03 0.0 0.415251666960828E-03 0.0 -0.222589870044469E-03 0.0
      -0.281591260559877E-01 0.140754079259402E-03 0.121080794462386E-01 0.605244205344127E-02 0.272157377933272E-03 0.130711550260183E-02 -0.15341316653457E-03 -0.354606202330943E-04 0.424539884989024E-02 -0.479102662588167E-03
      -0.229042073980103E-02 0.658945345305085E-02 0.982220922948144E-03 -0.311875898952665E-04 0.318034251275929E-04 -0.615835232326482E-06 -0.398090222832922E-03 0.811995203324655E-04 0.386648843070103E-03 0.337208143517599E-03
      0.583509946467653E-04 -0.395559138164364E-03 -0.104437265157017E-02 -0.121449734322587E-03 0.866283281281839E-03 -0.379547816525066E-04 -0.214169910949673E-03 -0.371930600094372E-04 0.146905209903157E-03 -0.215999919259226E-04
      0.301546383348717E-04 0.71499718209321E-04 0.207670447728282E-04 0.140433877867971E-03 -0.217584489163107E-03 -0.281591260559877E-01 0.140754079259402E-03 0.121080794462386E-01 0.605244205344127E-02 -0.272157377933272E-03
      0.130711550260183E-02 -0.15341316653457E-03 0.354606202330943E-04 0.424539884989024E-02 -0.479102662588167E-03 0.229042073980103E-02 0.658945345305085E-02 0.982220922948144E-03 -0.311875898952665E-04 0.318034251275929E-04
      -0.615835232326482E-06 0.398090222832922E-03 -0.811995203324655E-04 0.386648843070103E-03 0.337208143517599E-03 0.583509946467653E-04 -0.395559138164364E-03 0.104437265157017E-02 0.121449734322587E-03 0.866283281281839E-03
      0.379547816525066E-04 -0.214169910949673E-03 -0.371930600094372E-04 0.146905209903157E-03 -0.215999919259226E-04 -0.301546383348717E-04 0.71499718209321E-04 -0.207670447728282E-04 0.140433877867971E-03 0.217584489163107E-03
      0.281591260559877E-01 -0.140754079259402E-03 -0.121080794462386E-01 -0.605244205344127E-02 -0.272157377933272E-03 0.130711550260183E-02 0.15341316653457E-03 0.354606202330943E-04 0.424539884989024E-02 0.479102662588167E-03
      0.229042073980103E-02 0.658945345305085E-02 -0.982220922948144E-03 0.311875898952665E-04 -0.318034251275929E-04 0.615835232326482E-06 -0.398090222832922E-03 -0.811995203324655E-04 0.386648843070103E-03 -0.337208143517599E-03
      -0.583509946467653E-04 0.395559138164364E-03 -0.104437265157017E-02 0.121449734322587E-03 0.866283281281839E-03 0.379547816525066E-04 -0.214169910949673E-03 0.371930600094372E-04 0.146905209903157E-03 0.215999919259226E-04
      -0.301546383348717E-04 -0.71499718209321E-04 -0.207670447728282E-04 0.140433877867971E-03 -0.217584489163107E-03 0.281591260559877E-01 -0.140754079259402E-03 -0.121080794462386E-01 -0.605244205344127E-02 0.272157377933272E-03
      0.130711550260183E-02 0.15341316653457E-03 -0.354606202330943E-04 0.424539884989024E-02 0.479102662588167E-03 -0.229042073980103E-02 0.658945345305085E-02 -0.982220922948144E-03 0.311875898952665E-04 -0.318034251275929E-04
      0.615835232326482E-06 0.398090222832922E-03 0.811995203324655E-04 0.386648843070103E-03 -0.337208143517599E-03 -0.583509946467653E-04 0.395559138164364E-03 0.104437265157017E-02 -0.121449734322587E-03 0.866283281281839E-03
      -0.379547816525066E-04 -0.214169910949673E-03 0.371930600094372E-04 0.146905209903157E-03 0.215999919259226E-04 0.301546383348717E-04 -0.71499718209321E-04 0.207670447728282E-04 0.140433877867971E-03 0.217584489163107E-03
      0.0 0.0 0.0 0.0 0.0 -0.121060465704435E-02 0.0 0.0 -0.46404553056254E-02 0.0
      0.0 -0.754723221813643E-02 0.0 0.0 0.0 0.0 -0.351195108400193E-03 0.0 0.367704057892456E-03 0.0
      0.0 0.0 -0.154056262834582E-02 0.0 0.13616102754453E-02 0.0 0.240560715955392E-03 0.0 -0.170433192132965E-03 0.0
      0.0 0.0 0.0 -0.1523128760224E-03 0.253048555608278E-03 0.0 0.0 0.0 0.0 0.0
      -0.121060465704435E-02 0.0 0.0 -0.46404553056254E-02 0.0 0.0 -0.754723221813643E-02 0.0 0.0 0.0
      0.0 0.351195108400193E-03 0.0 0.367704057892456E-03 0.0 0.0 0.0 0.154056262834582E-02 0.0 0.13616102754453E-02
      0.0 0.240560715955392E-03 0.0 -0.170433192132965E-03 0.0 0.0 0.0 0.0 -0.1523128760224E-03 -0.253048555608278E-03
    </orbital>
    <orbital occupation="2.0" energy="-0.529813" symmetryID="4">
      0.0 0.0 0.0 0.0 0.0 0.478218978348049 0.0 0.0 -0.764866614854767E-02 0.0
      0.0 -0.387742709249164E-01 0.0 0.0 -0.505478218401555E-01 0.0 0.0 0.0 0.0 0.0
      0.485134899781794E-03 -0.545437631634029E-02 0.0 0.0 0.0 0.0 0.74184538800911E-03 -0.124008802922186E-01 0.0 0.0
      0.0 0.0 -0.281083385001334E-03 -0.13746787366736E-01 0.0 0.212414853552996E-03 0.0 0.0 0.0 0.0
      -0.9304708317238E-03 0.0 0.645486400538703E-03 0.0 -0.96248085711076E-04 -0.114291176152098E-02 0.0 0.0 0.0 0.0
      0.886041486248549E-03 0.0 0.647335548378412E-03 0.0 -0.284080498545092E-03 0.0 0.0 0.0 0.611727735534333E-05 -0.746293766037256E-03
      0.330122173053173E-04 0.0 0.150706283693338E-03 0.0 0.0 0.0 0.0 0.0 0.799064458241373E-03 -0.524977259918713E-04
      0.0 0.0 0.0 0.0 0.0 -0.478218978348049 0.0 0.0 0.764866614854767E-02 0.0
      0.0 0.387742709249164E-01 0.0 0.0 0.505478218401555E-01 0.0 0.0 0.0 0.0 0.0
      0.485134899781794E-03 0.545437631634029E-02 0.0 0.0 0.0 0.0 0.74184538800911E-03 0.124008802922186E-01 0.0 0.0
      0.0 0.0 -0.281083385001334E-03 0.13746787366736E-01 0.0 -0.212414853552996E-03 0.0 0.0 0.0 0.0
      0.9304708317238E-03 0.0 -0.645486400538703E-03 0.0 -0.96248085711076E-04 0.114291176152098E-02 0.0 0.0 0.0 0.0
      -0.886041486248549E-03 0.0 -0.647335548378412E-03 0.0 -0.284080498545092E-03 0.0 0.0 0.0 0.611727735534333E-05 0.746293766037256E-03
      0.330122173053173E-04 0.0 -0.150706283693338E-03 0.0 0.0 0.0 0.0 0.0 -0.799064458241373E-03 -0.524977259918713E-04
      0.0 0.0 0.0 0.0 0.0 0.0 0.0 0.0 0.0 0.0
      0.0 0.0 0.0 0.0 0.0 0.0 0.0 0.0 0.0 0.0
      0.234349496968516E-02 0.0 0.0 0.0 0.0 0.0 0.1056139768602E-01 0.0 0.0 0.0
      0.0 0.0 0.103117808930582E-01 0.0 0.0 0.0 0.0 0.0 0.0 0.0
      0.0 0.0 0.0 0.0 -0.122193358093882E-02 0.0 0.0 0.0 0.0 0.0
      0.0 0.0 0.0 0.0 -0.184252254215992E-02 0.0 0.0 0.0 -0.602586910261609E-03 0.0
      0.194379614911646E-03 0.0 0.0 0.0 0.0 0.0 0.0 0.0 0.0 0.547667556788311E-03
      0.0 0.0 0.0 0.0 0.143776208173659E-02 0.0 0.0 0.370474611187712E-02 0.0 0.0
      0.642727913560324E-02 0.0 0.0 0.0 0.0 0.0 -0.396001083163295E-03 -0.347913460683914E-03 0.0 0.0
      0.0 0.0 -0.689008857693716E-03 -0.455082263840938E-03 0.0 -0.990524534504919E-04 0.0 0.0 0.0 0.0
      0.811537045050619E-04 0.0 0.517391070469981E-04 0.0 0.16137809489855E-03 0.0 0.0 0.0 0.0 -0.143776208173659E-02
      0.0 0.0 -0.370474611187712E-02 0.0 0.0 -0.642727913560324E-02 0.0 0.0 0.0 0.0
      0.0 -0.396001083163295E-03 0.347913460683914E-03 0.0 0.0 0.0 0.0 -0.689008857693716E-03 0.455082263840938E-03 0.0
      0.990524534504919E-04 0.0 0.0 0.0 0.0 -0.811537045050619E-04 0.0 -0.517391070469981E-04 0.0 0.16137809489855E-03
      0.438624092359175 -0.994576275102048E-02 -0.688168685751388E-01 -0.738979605479411E-01 -0.130824695389426E-02 -0.6633338619259E-04 0.190377064595337E-02 -0.702544972171429E-02 -0.147926298411105E-03 0.844755012480734E-02
      -0.455619801026947E-02 0.372380295996197E-03 0.866272270200192E-02 0.163230607778677E-03 -0.401373200960104E-03 0.238142593181428E-03 0.244477506323904E-04 -0.884039892729732E-03 -0.380565179304306E-04 0.680614369500125E-03
      -0.170811286230613E-02 0.1027498492806E-02 0.132236932975801E-03 -0.248850795378344E-02 -0.859527143276398E-04 0.106709374997008E-03 0.392225397788384E-04 -0.124819333654229E-03 -0.172769626820393E-04 0.467366747139818E-03
      0.207949188112389E-03 -0.299904038165568E-03 -0.351114837910285E-03 -0.35345596435364E-04 0.204494241755846E-04 -0.438624092359175 0.994576275102048E-02 0.688168685751388E-01 0.738979605479411E-01 -0.130824695389426E-02
      0.6633338619259E-04 -0.190377064595337E-02 -0.702544972171429E-02 0.147926298411105E-03 -0.844755012480734E-02 -0.455619801026947E-02 -0.372380295996197E-03 -0.866272270200192E-02 -0.163230607778677E-03 0.401373200960104E-03
      -0.238142593181428E-03 0.244477506323904E-04 -0.884039892729732E-03 0.380565179304306E-04 -0.680614369500125E-03 0.170811286230613E-02 -0.1027498492806E-02 0.132236932975801E-03 -0.248850795378344E-02 0.859527143276398E-04
      0.106709374997008E-03 -0.392225397788384E-04 0.124819333654229E-03 0.172769626820393E-04 -0.467366747139818E-03 0.207949188112389E-03 0.299904038165568E-03 -0.351114837910285E-03 0.35345596435364E-04 0.204494241755846E-04
      -0.438624092359175 0.994576275102048E-02 0.688168685751388E-01 0.738979605479411E-01 0.130824695389426E-02 -0.6633338619259E-04 -0.190377064595337E-02 0.702544972171429E-02 -0.147926298411105E-03 -0.844755012480734E-02
      0.455619801026947E-02 0.372380295996197E-03 -0.866272270200192E-02 -0.163230607778677E-03 0.401373200960104E-03 -0.238142593181428E-03 0.244477506323904E-04 0.884039892729732E-03 -0.380565179304306E-04 -0.680614369500125E-03
      0.170811286230613E-02 -0.1027498492806E-02 0.132236932975801E-03 0.248850795378344E-02 -0.859527143276398E-04 -0.106709374997008E-03 0.392225397788384E-04 0.124819333654229E-03 -0.172769626820393E-04 -0.467366747139818E-03
      -0.207949188112389E-03 0.299904038165568E-03 0.351114837910285E-03 -0.35345596435364E-04 0.204494241755846E-04 0.438624092359175 -0.994576275102048E-02 -0.688168685751388E-01 -0.738979605479411E-01 0.130824695389426E-02
      0.6633338619259E-04 0.190377064595337E-02 0.702544972171429E-02 0.147926298411105E-03 0.844755012480734E-02 0.455619801026947E-02 -0.372380295996197E-03 0.866272270200192E-02 0.163230607778677E-03 -0.401373200960104E-03
      0.238142593181428E-03 0.244477506323904E-04 0.884039892729732E-03 0.380565179304306E-04 0.680614369500125E-03 -0.170811286230613E-02 0.1027498492806E-02 0.132236932975801E-03 0.248850795378344E-02 0.859527143276398E-04
      -0.106709374997008E-03 -0.392225397788384E-04 -0.124819333654229E-03 0.172769626820393E-04 0.467366747139818E-03 -0.207949188112389E-03 -0.299904038165568E-03 0.351114837910285E-03 0.35345596435364E-04 0.204494241755846E-04
      0.0 0.0 0.0 0.0 0.0 -0.235221035810388E-03 0.0 0.0 -0.101521660386817E-02 0.0
      0.0 0.28506611659111E-03 0.0 0.0 0.0 0.0 -0.284841482891962E-04 0.0 0.908570357816923E-04 0.0
      0.0 0.0 0.554701598118191E-03 0.0 0.464271709816135E-04 0.0 -0.90868836372122E-04 0.0 0.113969457619161E-03 0.0
      0.0 0.0 0.0 0.794387947946105E-05 -0.134619878566319E-03 0.0 0.0 0.0 0.0 0.0
      0.235221035810388E-03 0.0 0.0 0.101521660386817E-02 0.0 0.0 -0.28506611659111E-03 0.0 0.0 0.0
      0.0 -0.284841482891962E-04 0.0 -0.908570357816923E-04 0.0 0.0 0.0 0.554701598118191E-03 0.0 -0.464271709816135E-04
      0.0 0.90868836372122E-04 0.0 -0.113969457619161E-03 0.0 0.0 0.0 0.0 -0.794387947946105E-05 -0.134619878566319E-03
    </orbital>
   </orbitals>
   <stm:metadataList>
    <stm:metadata name="dc:date" content="2022-07-24T16:27:18+08:00"/>
    <stm:metadata name="dc:creator" content="root"/>
    <stm:metadata name="cmlm:insilico" content="Molpro"/>
   </stm:metadataList>
   <platform>
    <version major="2019" minor="2" SHA="8135a10abc80eafa5b3ae28ffc55be4890dc4c84"
      integer_bits="64" parallelism="mpp">
     2019.2
     <date year="2022" month="7" day="24" hour="16" minute="25" second="8">
      2022-07-24T16:25:08
     </date>
    </version>
    <licence id="scuxyl"/>
    <parallel processes="8" nodes="1" all_processes="8" openmp="1"/>
    <machine hostname="localhost.localdomain"/>
   </platform>
  </molecule><!--

 HF/cc-pVQZ energy=   -118.315281954292

          HF-SCF         CCSD(T)          HF-SCF         CCSD(T)          HF-SCF
   -118.31528195   -118.91405710   -118.30763108   -118.78052718   -118.27244148
 **********************************************************************************************************************************
 Molpro calculation terminated
