
 Primary working directories    : /home/tmp/molpro/molpro.AE4bA6qESV
 Secondary working directories  : /home/tmp/molpro/molpro.AE4bA6qESV
 Wavefunction directory         : /root/wfu/
 Main file repository           : /home/tmp/molpro/molpro.AE4bA6qESV/

 id        : scuxyl

 Nodes                nprocs
 localhost.localdomain    8

 Using customized tuning parameters: mindgm=1; mindgv=20; mindgc=4; mindgr=1; noblas=0; minvec=7
 default implementation of scratch files=sf  


 Variables initialized (934), CPU time= 0.00 sec
 ***,CCCC1=CC=CC=C1
 
 geometry={
 C        1.159141        3.534811        0.000000
 C        1.097612        2.010089        0.000000
 C       -0.345093        1.487751        0.000000
 C       -0.402354       -0.018596        0.000000
 C       -0.401511       -0.733132        1.199202
 C       -0.401511       -2.124045        1.201974
 C       -0.401662       -2.824060        0.000000
 C       -0.401511       -2.124045       -1.201974
 C       -0.401511       -0.733132       -1.199202
 H        2.190389        3.892635        0.000000
 H        0.662463        3.944772        0.883245
 H        0.662463        3.944772       -0.883245
 H        1.619029        1.610762        0.875153
 H        1.619029        1.610762       -0.875153
 H       -0.868727        1.877888       -0.878045
 H       -0.868727        1.877888        0.878045
 H       -0.404669       -0.191162        2.139974
 H       -0.405594       -2.661740        2.143042
 H       -0.404997       -3.907517        0.000000
 H       -0.405594       -2.661740       -2.143042
 H       -0.404669       -0.191162       -2.139974
 }
 
 basis=vdz
 {hf;wf,66,spin,0,state,1}
 ccsd(t)
 
 basis=vtz
 hf
 ccsd(t)
 
 basis=vqz
 hf
 Commands  initialized (763), CPU time= 0.00 sec, 617 directives.
 Default parameters read. Elapsed time= 0.05 sec

 Checking input...
 Passed
1


                                         ***  PROGRAM SYSTEM MOLPRO  ***
                                       Copyright, TTI GmbH Stuttgart, 2015
                                    Version 2019.2 linked Jun  8 2019 11:26:33


 **********************************************************************************************************************************
 LABEL *   CCCC1=CC=CC=C1                                                                
  64 bit mpp version                                                                     DATE: 24-Jul-22          TIME: 16:50:56  
 **********************************************************************************************************************************

 SHA1:             8135a10abc80eafa5b3ae28ffc55be4890dc4c84
 **********************************************************************************************************************************

Geometry recognized as XYZ


 Variable memory set to  300000000 words,  buffer space 

 SETTING BASIS          =    VDZ


 Recomputing integrals since basis changed


 Using spherical harmonics

 Library entry C      S cc-pVDZ              selected for orbital group  1
 Library entry C      P cc-pVDZ              selected for orbital group  1
 Library entry C      D cc-pVDZ              selected for orbital group  1
 Library entry H      S cc-pVDZ              selected for orbital group  2
 Library entry H      P cc-pVDZ              selected for orbital group  2


 PROGRAM * SEWARD (Integral evaluation for generally contracted gaussian basis sets)     Author: Roland Lindh, 1990

 Geometry written to block  1 of record 700


 Point group  Cs  



 ATOMIC COORDINATES

 NR  ATOM    CHARGE       X              Y              Z

   1  C       6.00    2.190459030    6.679824692    0.000000000
   2  C       6.00    2.074186071    3.798517696    0.000000000
   3  C       6.00   -0.652131258    2.811441932    0.000000000
   4  C       6.00   -0.760338865   -0.035141347    0.000000000
   5  C       6.00   -0.758745826   -1.385418693    2.266163348
   6  C       6.00   -0.758745826   -1.385418693   -2.266163348
   7  C       6.00   -0.758745826   -4.013863326    2.271401669
   8  C       6.00   -0.758745826   -4.013863326   -2.271401669
   9  C       6.00   -0.759031175   -5.336699959    0.000000000
  10  H       1.00    4.139235316    7.356014053    0.000000000
  11  H       1.00    1.251873638    7.454538704    1.669091151
  12  H       1.00    1.251873638    7.454538704   -1.669091151
  13  H       1.00    3.059521398    3.043899032    1.653799487
  14  H       1.00    3.059521398    3.043899032   -1.653799487
  15  H       1.00   -1.641656107    3.548694013   -1.659264575
  16  H       1.00   -1.641656107    3.548694013    1.659264575
  17  H       1.00   -0.764713581   -0.361243825    4.043964774
  18  H       1.00   -0.764713581   -0.361243825   -4.043964774
  19  H       1.00   -0.766461578   -5.029959615    4.049762453
  20  H       1.00   -0.766461578   -5.029959615   -4.049762453
  21  H       1.00   -0.765333411   -7.384136957    0.000000000

 Bond lengths in Bohr (Angstrom)

  1- 2  2.883652095   1-10  2.062755697   1-11  2.065669288   1-12  2.065669288   2- 3  2.899504223
       ( 1.525962973)       ( 1.091563307)       ( 1.093105113)       ( 1.093105113)       ( 1.534351558)

  2-13  2.067701085   2-14  2.067701085   3- 4  2.848639192   3-15  2.067815028   3-16  2.067815028
       ( 1.094180293)       ( 1.094180293)       ( 1.507434943)       ( 1.094240589)       ( 1.094240589)

  4- 5  2.637943853   4- 6  2.637943853   5- 7  2.628449853   5-17  2.051718227   6- 8  2.628449853
       ( 1.395939770)       ( 1.395939770)       ( 1.390915762)       ( 1.085722529)       ( 1.390915762)

  6-18  2.051718227   7- 9  2.628528558   7-19  2.048189025   8- 9  2.628528558   8-20  2.048189025
       ( 1.085722529)       ( 1.390957411)       ( 1.083854955)       ( 1.390957411)       ( 1.083854955)

  9-21  2.047446697
       ( 1.083462133)

 Bond angles

  1- 2- 3  112.21389637   1- 2-13  110.20889921   1- 2-14  110.20889921   2- 1-10  111.44670309

  2- 1-11  110.88029130   2- 1-12  110.88029130   2- 3- 4  112.07996760   2- 3-15  109.18249068

  2- 3-16  109.18249068   3- 2-13  108.89481083   3- 2-14  108.89481083   3- 4- 5  120.76212833

  3- 4- 6  120.76212833   4- 3-15  109.76127341   4- 3-16  109.76127341   4- 5- 7  120.90248027

  4- 5-17  119.26559860   4- 6- 8  120.90248027   4- 6-18  119.26559860   5- 4- 6  118.42336517

  5- 7- 9  120.10181314   5- 7-19  119.85616593   6- 8- 9  120.10181314   6- 8-20  119.85616593

  7- 5-17  119.83151885   7- 9- 8  119.56799888   7- 9-21  120.21586386   8- 6-18  119.83151885

  8- 9-21  120.21586386   9- 7-19  120.04152500   9- 8-20  120.04152500  10- 1-11  107.83786312

 10- 1-12  107.83786312  11- 1-12  107.80482663  13- 2-14  106.22683175  15- 3-16  106.72442524

 NUCLEAR CHARGE:                   66
 NUMBER OF PRIMITIVE AOS:         327
 NUMBER OF SYMMETRY AOS:          318
 NUMBER OF CONTRACTIONS:          186   (  111A'  +   75A"  )
 NUMBER OF CORE ORBITALS:           9   (    7A'  +    2A"  )
 NUMBER OF VALENCE ORBITALS:       48   (   30A'  +   18A"  )


 NUCLEAR REPULSION ENERGY  412.12382619


 Eigenvalues of metric

         1 0.279E-03 0.146E-02 0.238E-02 0.294E-02 0.438E-02 0.719E-02 0.146E-01 0.161E-01
         2 0.117E-02 0.191E-02 0.310E-02 0.133E-01 0.145E-01 0.242E-01 0.293E-01 0.310E-01


 Contracted 2-electron integrals neglected if value below      1.0D-11
 AO integral compression algorithm  1   Integral accuracy      1.0D-11

     252.445 MB (compressed) written to integral file ( 41.7%)

     Node minimum: 29.622 MB, node maximum: 33.817 MB


 NUMBER OF SORTED TWO-ELECTRON INTEGRALS:    9565080.     BUFFER LENGTH:  32768
 NUMBER OF SEGMENTS:   1  SEGMENT LENGTH:    9565080      RECORD LENGTH: 524288

 Memory used in sort:      10.12 MW

 SORT1 READ    75837611. AND WROTE     7859546. INTEGRALS IN     23 RECORDS. CPU TIME:     1.14 SEC, REAL TIME:     1.24 SEC
 SORT2 READ    63274322. AND WROTE    76531911. INTEGRALS IN   1008 RECORDS. CPU TIME:     0.23 SEC, REAL TIME:     0.30 SEC

 Node minimum:     9559415.  Node maximum:     9579780. integrals

 OPERATOR DM      FOR CENTER  0  COORDINATES:    0.000000    0.000000    0.000000


 **********************************************************************************************************************************
 DATASETS  * FILE   NREC   LENGTH (MB)   RECORD NAMES
              1      18       31.00       500      610      700      900      950      970     1000      129      960     1100   
                                          VAR    BASINP    GEOM    SYMINP    ZMAT    AOBASIS   BASIS     P2S    ABASIS      S 
                                         1400     1410     1200     1210     1080     1600     1650     1700   
                                           T        V       H0       H01     AOSYM     SMH    MOLCAS    OPER   

 PROGRAMS   *        TOTAL       INT
 CPU TIMES  *         2.60      2.51
 REAL TIME  *         3.09 SEC
 DISK USED  *        31.67 MB (local),        1.27 GB (total)
 GA USED    *         0.00 MB       (max)       0.00 MB       (current)
 **********************************************************************************************************************************


 PROGRAM * RHF-SCF (CLOSED SHELL)       Authors: W. Meyer, H.-J. Werner


 NUMBER OF ELECTRONS:      33+   33-
 CONVERGENCE THRESHOLDS:    1.00E-05 (Density)    1.00E-07 (Energy)
 MAX. NUMBER OF ITERATIONS:       60
 INTERPOLATION TYPE:            DIIS
 INTERPOLATION STEPS:              2 (START)      1 (STEP)
 LEVEL SHIFTS:                  0.00 (CLOSED)  0.00 (OPEN) 



 Orbital guess generated from atomic densities. Full valence occupancy:   37  20

 Molecular orbital dump at record        2100.2

 Initial occupancy:  22  11

 ITERATION    DDIFF          GRAD             ENERGY        2-EL.EN.            DIPOLE MOMENTS         DIIS   ORB.
    1      0.000D+00      0.000D+00      -347.74167872   1055.996379    0.05534    0.27922    0.00000    0    start
    2      0.000D+00      0.456D-02      -347.82639420   1049.577790    0.07589    0.16291    0.00000    1    diag
    3      0.103D-01      0.158D-02      -347.83495726   1052.462540    0.04999    0.13593    0.00000    2    diag
    4      0.349D-02      0.541D-03      -347.83620484   1051.638307    0.05966    0.12686    0.00000    3    diag
    5      0.128D-02      0.578D-04      -347.83622240   1051.653210    0.05509    0.12418    0.00000    4    diag
    6      0.182D-03      0.204D-04      -347.83622392   1051.648262    0.05631    0.12452    0.00000    5    diag
    7      0.501D-04      0.405D-05      -347.83622402   1051.649801    0.05618    0.12365    0.00000    6    diag
    8      0.115D-04      0.221D-05      -347.83622405   1051.648862    0.05610    0.12403    0.00000    7    diag
    9      0.443D-05      0.814D-06      -347.83622405   1051.649010    0.05612    0.12394    0.00000    0    orth

 Final occupancy:  22  11

 !RHF STATE  1.1 Energy              -347.836224054493
 Nuclear energy                       412.12382619
 One-electron energy                -1285.78455537
 Two-electron energy                  525.82450512
 Virial quotient                       -1.00079536
 !RHF STATE  1.1 Dipole moment          0.05612346     0.12394249     0.00000000
 Dipole moment /Debye                   0.14264226     0.31500977     0.00000000

 Orbital energies:

         1.1          2.1          3.1          4.1          5.1          6.1          7.1          8.1          9.1         10.1
    -11.237663   -11.234914   -11.231010   -11.230308   -11.228561   -11.224971   -11.219647    -1.153290    -1.074963    -1.011996

        11.1         12.1         13.1         14.1         15.1         16.1         17.1         18.1         19.1         20.1
     -0.922201    -0.821070    -0.783719    -0.690392    -0.631807    -0.587349    -0.564654    -0.523711    -0.495966    -0.474310

        21.1         22.1         23.1         24.1
     -0.463055    -0.320640     0.141332     0.180021

         1.2          2.2          3.2          4.2          5.2          6.2          7.2          8.2          9.2         10.2
    -11.234744   -11.230423    -1.010285    -0.823200    -0.645491    -0.604750    -0.579533    -0.528240    -0.485744    -0.467697

        11.2         12.2         13.2
     -0.331469     0.138151     0.207166


 HOMO     22.1    -0.320640 =      -8.7251eV
 LUMO     12.2     0.138151 =       3.7593eV
 LUMO-HOMO         0.458791 =      12.4843eV


 **********************************************************************************************************************************
 DATASETS  * FILE   NREC   LENGTH (MB)   RECORD NAMES
              1      18       31.01       500      610      700      900      950      970     1000      129      960     1100   
                                          VAR    BASINP    GEOM    SYMINP    ZMAT    AOBASIS   BASIS     P2S    ABASIS      S 
                                         1400     1410     1200     1210     1080     1600     1650     1700   
                                           T        V       H0       H01     AOSYM     SMH    MOLCAS    OPER   

              2       4        3.48       700     1000      520     2100   
                                         GEOM     BASIS   MCVARS     RHF  

 PROGRAMS   *        TOTAL    HF-SCF       INT
 CPU TIMES  *         3.32      0.72      2.51
 REAL TIME  *         3.92 SEC
 DISK USED  *        35.72 MB (local),        1.30 GB (total)
 SF USED    *         0.07 MB
 GA USED    *         0.00 MB       (max)       0.00 MB       (current)
 **********************************************************************************************************************************


 PROGRAM * CCSD (Closed-shell coupled cluster)     Authors: C. Hampel, H.-J. Werner, 1991, M. Deegan, P.J. Knowles, 1992


 Convergence thresholds:  THRVAR = 1.00D-08  THRDEN = 1.00D-06

 CCSD(T)     terms to be evaluated (factor= 1.000)


 Number of core orbitals:           9 (   7   2 )
 Number of closed-shell orbitals:  24 (  15   9 )
 Number of external orbitals:     153 (  89  64 )

 Molecular orbitals read from record     2100.2  Type=RHF/CANONICAL (state 1.1)

 Number of N-1 electron functions:              24
 Number of N-2 electron functions:             300
 Number of singly external CSFs:              1911
 Number of doubly external CSFs:           3378357
 Total number of CSFs:                     3380269

 Length of J-op  integral file:               0.00 MB
 Length of K-op  integral file:               1.23 MB
 Length of 3-ext integral record:             0.00 MB

 Memory could be reduced to 55.88 Mwords without degradation in triples

 Integral transformation finished. Total CPU:   3.59 sec, npass=  1  Memory used:  33.01 MW

 Reference energy:                   -347.83622405

 MP2 singlet pair energy:              -0.75416996
 MP2 triplet pair energy:              -0.46205185
 MP2 correlation energy:               -1.21622180
 MP2 total energy:                   -349.05244586

 SCS-MP2 correlation energy:           -1.19250288   (PS=  1.200000  PT=  0.333333)
 SCS-MP2 total energy:               -349.02872693

 ITER.      SQ.NORM     CORR.ENERGY   TOTAL ENERGY   ENERGY CHANGE        DEN1      VAR(S)    VAR(P)  DIIS     TIME  TIME/IT
   1      1.46925335    -1.28381858  -349.12004263    -0.06759677    -0.03317472  0.43D-02  0.96D-02  1  1     5.98     2.50
   2      1.50663472    -1.29135129  -349.12757534    -0.00753271    -0.03509503  0.88D-04  0.12D-02  2  2     8.61     2.69
   3      1.51696921    -1.29143172  -349.12765578    -0.00008044    -0.00547014  0.22D-04  0.96D-04  3  3    11.26     2.77
   4      1.52122913    -1.29163453  -349.12785858    -0.00020280    -0.00137604  0.15D-05  0.12D-04  4  4    13.92     2.81
   5      1.52243391    -1.29167306  -349.12789712    -0.00003854    -0.00027817  0.22D-06  0.15D-05  5  5    16.58     2.85
   6      1.52274265    -1.29166226  -349.12788632     0.00001080    -0.00004797  0.32D-07  0.11D-06  6  6    19.24     2.87
   7      1.52278772    -1.29166410  -349.12788816    -0.00000184     0.00000022  0.64D-08  0.12D-07  6  2    21.94     2.90
   8      1.52280151    -1.29166382  -349.12788788     0.00000028    -0.00000227  0.15D-08  0.10D-08  6  1    24.63     2.91
   9      1.52280120    -1.29166398  -349.12788804    -0.00000016     0.00000180  0.40D-09  0.14D-09  6  4    27.23     2.91

 Norm of t1 vector:      0.08789297      S-energy:     0.00000015      T1 diagnostic:  0.00897054
                                                                       D1 diagnostic:  0.02689002

 Doubles amplitudes (print threshold =  0.500E-01):

         I         J         SYM. A    SYM. B    A         B      T(IJ, AB)

        15        15         1         1         1         1     -0.08002809
        24        24         2         2         1         1     -0.08560711


 Total CPU time for triples:     56.52 sec


 RESULTS
 =======

  Reference energy                   -347.836224054492
  CCSD singlet pair energy             -0.872883111931
  CCSD triplet pair energy             -0.418781023088
  CCSD correlation energy              -1.291663983193

  Triples (T) contribution             -0.051262190254
  Total correlation energy             -1.342926173448

  CCSD total energy                  -349.127888037685
  CCSD[T] energy                     -349.180132239868
  CCSD-T energy                      -349.178721933419
 !CCSD(T) total energy               -349.179150227939

 Timing summary (sec):

 STEP                 CPU(USER)    SYS     CPU(TOT)    WALL
 Transformation          3.61      0.78      4.39      4.41
 CCSD iterations        23.64      2.49     26.13     26.28
 Triples                56.52      1.91     58.43     58.69

 Program statistics:

 Available memory in ccsd:               299997674
 Min. memory needed in ccsd:               8347915
 Max. memory used in ccsd:                11474086
 Max. memory used in cckext:              11518439 ( 9 integral passes)



 **********************************************************************************************************************************
 DATASETS  * FILE   NREC   LENGTH (MB)   RECORD NAMES
              1      19      268.46       500      610      700      900      950      970     1000      129      960     1100   
                                          VAR    BASINP    GEOM    SYMINP    ZMAT    AOBASIS   BASIS     P2S    ABASIS      S 
                                         1400     1410     1200     1210     1080     1600     1650     1700     1380   
                                           T        V       H0       H01     AOSYM     SMH    MOLCAS    OPER     JKOP   

              2       4        3.48       700     1000      520     2100   
                                         GEOM     BASIS   MCVARS     RHF  

 PROGRAMS   *        TOTAL   CCSD(T)    HF-SCF       INT
 CPU TIMES  *        87.12     83.79      0.72      2.51
 REAL TIME  *        93.44 SEC
 DISK USED  *       612.35 MB (local),        3.53 GB (total)
 SF USED    *       548.16 MB
 GA USED    *         0.00 MB       (max)       0.00 MB       (current)
 **********************************************************************************************************************************
 SETTING BASIS          =    VTZ


 Recomputing integrals since basis changed


 Using spherical harmonics

 Library entry C      S cc-pVTZ              selected for orbital group  1
 Library entry C      P cc-pVTZ              selected for orbital group  1
 Library entry C      D cc-pVTZ              selected for orbital group  1
 Library entry C      F cc-pVTZ              selected for orbital group  1
 Library entry H      S cc-pVTZ              selected for orbital group  2
 Library entry H      P cc-pVTZ              selected for orbital group  2
 Library entry H      D cc-pVTZ              selected for orbital group  2


 PROGRAM * SEWARD (Integral evaluation for generally contracted gaussian basis sets)     Author: Roland Lindh, 1990

 Geometry written to block  1 of record 700


 Point group  Cs  



 ATOMIC COORDINATES

 NR  ATOM    CHARGE       X              Y              Z

   1  C       6.00    2.190459030    6.679824692    0.000000000
   2  C       6.00    2.074186071    3.798517696    0.000000000
   3  C       6.00   -0.652131258    2.811441932    0.000000000
   4  C       6.00   -0.760338865   -0.035141347    0.000000000
   5  C       6.00   -0.758745826   -1.385418693    2.266163348
   6  C       6.00   -0.758745826   -1.385418693   -2.266163348
   7  C       6.00   -0.758745826   -4.013863326    2.271401669
   8  C       6.00   -0.758745826   -4.013863326   -2.271401669
   9  C       6.00   -0.759031175   -5.336699959    0.000000000
  10  H       1.00    4.139235316    7.356014053    0.000000000
  11  H       1.00    1.251873638    7.454538704    1.669091151
  12  H       1.00    1.251873638    7.454538704   -1.669091151
  13  H       1.00    3.059521398    3.043899032    1.653799487
  14  H       1.00    3.059521398    3.043899032   -1.653799487
  15  H       1.00   -1.641656107    3.548694013   -1.659264575
  16  H       1.00   -1.641656107    3.548694013    1.659264575
  17  H       1.00   -0.764713581   -0.361243825    4.043964774
  18  H       1.00   -0.764713581   -0.361243825   -4.043964774
  19  H       1.00   -0.766461578   -5.029959615    4.049762453
  20  H       1.00   -0.766461578   -5.029959615   -4.049762453
  21  H       1.00   -0.765333411   -7.384136957    0.000000000

 Bond lengths in Bohr (Angstrom)

  1- 2  2.883652095   1-10  2.062755697   1-11  2.065669288   1-12  2.065669288   2- 3  2.899504223
       ( 1.525962973)       ( 1.091563307)       ( 1.093105113)       ( 1.093105113)       ( 1.534351558)

  2-13  2.067701085   2-14  2.067701085   3- 4  2.848639192   3-15  2.067815028   3-16  2.067815028
       ( 1.094180293)       ( 1.094180293)       ( 1.507434943)       ( 1.094240589)       ( 1.094240589)

  4- 5  2.637943853   4- 6  2.637943853   5- 7  2.628449853   5-17  2.051718227   6- 8  2.628449853
       ( 1.395939770)       ( 1.395939770)       ( 1.390915762)       ( 1.085722529)       ( 1.390915762)

  6-18  2.051718227   7- 9  2.628528558   7-19  2.048189025   8- 9  2.628528558   8-20  2.048189025
       ( 1.085722529)       ( 1.390957411)       ( 1.083854955)       ( 1.390957411)       ( 1.083854955)

  9-21  2.047446697
       ( 1.083462133)

 Bond angles

  1- 2- 3  112.21389637   1- 2-13  110.20889921   1- 2-14  110.20889921   2- 1-10  111.44670309

  2- 1-11  110.88029130   2- 1-12  110.88029130   2- 3- 4  112.07996760   2- 3-15  109.18249068

  2- 3-16  109.18249068   3- 2-13  108.89481083   3- 2-14  108.89481083   3- 4- 5  120.76212833

  3- 4- 6  120.76212833   4- 3-15  109.76127341   4- 3-16  109.76127341   4- 5- 7  120.90248027

  4- 5-17  119.26559860   4- 6- 8  120.90248027   4- 6-18  119.26559860   5- 4- 6  118.42336517

  5- 7- 9  120.10181314   5- 7-19  119.85616593   6- 8- 9  120.10181314   6- 8-20  119.85616593

  7- 5-17  119.83151885   7- 9- 8  119.56799888   7- 9-21  120.21586386   8- 6-18  119.83151885

  8- 9-21  120.21586386   9- 7-19  120.04152500   9- 8-20  120.04152500  10- 1-11  107.83786312

 10- 1-12  107.83786312  11- 1-12  107.80482663  13- 2-14  106.22683175  15- 3-16  106.72442524

 NUCLEAR CHARGE:                   66
 NUMBER OF PRIMITIVE AOS:         627
 NUMBER OF SYMMETRY AOS:          570
 NUMBER OF CONTRACTIONS:          438   (  250A'  +  188A"  )
 NUMBER OF CORE ORBITALS:           9   (    7A'  +    2A"  )
 NUMBER OF VALENCE ORBITALS:       48   (   30A'  +   18A"  )


 NUCLEAR REPULSION ENERGY  412.12382619


 Eigenvalues of metric

         1 0.323E-04 0.222E-03 0.333E-03 0.465E-03 0.591E-03 0.852E-03 0.108E-02 0.111E-02
         2 0.165E-03 0.303E-03 0.568E-03 0.894E-03 0.958E-03 0.973E-03 0.123E-02 0.133E-02


 Contracted 2-electron integrals neglected if value below      1.0D-12
 AO integral compression algorithm  1   Integral accuracy      1.0D-12

     6452.412 MB (compressed) written to integral file ( 36.4%)

     Node minimum: 714.080 MB, node maximum: 869.007 MB


 NUMBER OF SORTED TWO-ELECTRON INTEGRALS:  290192628.     BUFFER LENGTH:  32768
 NUMBER OF SEGMENTS:  10  SEGMENT LENGTH:   31995384      RECORD LENGTH: 524288

 Memory used in sort:      32.55 MW

 SORT1 READ  2215487296. AND WROTE   200991969. INTEGRALS IN    581 RECORDS. CPU TIME:    72.86 SEC, REAL TIME:    81.98 SEC
 SORT2 READ  1609261975. AND WROTE  2322260011. INTEGRALS IN  25984 RECORDS. CPU TIME:     5.48 SEC, REAL TIME:    53.44 SEC

 Node minimum:   290192628.  Node maximum:   290323611. integrals

 OPERATOR DM      FOR CENTER  0  COORDINATES:    0.000000    0.000000    0.000000


 **********************************************************************************************************************************
 DATASETS  * FILE   NREC   LENGTH (MB)   RECORD NAMES
              1      18       33.96       500      610      700      900      950      970     1001      129      960     1100   
                                          VAR    BASINP    GEOM    SYMINP    ZMAT    AOBASIS   BASIS     P2S    ABASIS      S 
                                         1400     1410     1200     1210     1080     1600     1650     1700   
                                           T        V       H0       H01     AOSYM     SMH    MOLCAS    OPER   

              2       5        3.93       700     1000      520     2100     1001   
                                         GEOM     BASIS   MCVARS     RHF     BASIS   

 PROGRAMS   *        TOTAL       INT   CCSD(T)    HF-SCF       INT
 CPU TIMES  *       177.54     90.41     83.79      0.72      2.51
 REAL TIME  *       241.93 SEC
 DISK USED  *       612.35 MB (local),       28.57 GB (total)
 SF USED    *       548.16 MB
 GA USED    *         0.00 MB       (max)       0.00 MB       (current)
 **********************************************************************************************************************************


 PROGRAM * RHF-SCF (CLOSED SHELL)       Authors: W. Meyer, H.-J. Werner


 NUMBER OF ELECTRONS:      33+   33-
 CONVERGENCE THRESHOLDS:    1.00E-05 (Density)    1.00E-07 (Energy)
 MAX. NUMBER OF ITERATIONS:       60
 INTERPOLATION TYPE:            DIIS
 INTERPOLATION STEPS:              2 (START)      1 (STEP)
 LEVEL SHIFTS:                  0.00 (CLOSED)  0.00 (OPEN) 



 Molecular orbitals read from record     2100.2  Type=RHF/CANONICAL (state 1.1)

 Present basis size:      250  188
 Previous basis size:     111   75
 Previous occupation:      22   11
 Previous closed-shells:   22   11
 Previous core-orbitals:    7    2
 Present occupation:       22   11
 Present closed-shells:    22   11
 Present core-orbitals:     7    2
 Wavefunction symmetry:    1   Singlet 

 Orbital overlap <old|new>:  < 1.1| 1.1> = 0.999999   < 2.1| 2.1> = 0.999999   < 3.1| 3.1> = 0.999999   < 4.1| 4.1> = 0.999999
                             < 5.1| 5.1> = 0.999999   < 6.1| 6.1> = 0.999999   < 7.1| 7.1> = 0.999999   < 1.2| 1.2> = 0.999999
                             < 2.2| 2.2> = 0.999999   < 8.1| 8.1> = 0.999905   < 9.1| 9.1> = 0.999946   <10.1|10.1> = 0.999935
                             <11.1|11.1> = 0.999949   <12.1|12.1> = 0.999950   <13.1|13.1> = 0.999948   <14.1|14.1> = 0.999927
                             <15.1|15.1> = 0.999937   <16.1|16.1> = 0.999921   <17.1|17.1> = 0.999907   <18.1|18.1> = 0.999884
                             <19.1|19.1> = 0.999860   <20.1|20.1> = 0.999859   <21.1|21.1> = 0.999870   <22.1|22.1> = 0.999799
                             < 3.2| 3.2> = 0.999924   < 4.2| 4.2> = 0.999951   < 5.2| 5.2> = 0.999927   < 6.2| 6.2> = 0.999911
                             < 7.2| 7.2> = 0.999913   < 8.2| 8.2> = 0.999926   < 9.2| 9.2> = 0.999883   <10.2|10.2> = 0.999905
                             <11.2|11.2> = 0.999767


 Molecular orbital dump at record        2101.2

 ITERATION    DDIFF          GRAD             ENERGY        2-EL.EN.            DIPOLE MOMENTS         DIIS   ORB.
    1      0.000D+00      0.000D+00      -347.88821031   1051.684987    0.05793    0.12776    0.00000    0    start
    2      0.000D+00      0.346D-02      -347.92390743   1052.179362    0.05909    0.13130    0.00000    1    diag
    3      0.874D-02      0.302D-03      -347.92431545   1051.849555    0.05815    0.13757    0.00000    2    diag
    4      0.102D-02      0.405D-04      -347.92432688   1051.993178    0.05740    0.13414    0.00000    3    diag
    5      0.827D-04      0.144D-04      -347.92432865   1051.947957    0.05785    0.13614    0.00000    4    diag
    6      0.254D-04      0.281D-05      -347.92432874   1051.949869    0.05772    0.13537    0.00000    5    diag
    7      0.625D-05      0.137D-05      -347.92432877   1051.949395    0.05777    0.13600    0.00000    0    orth

 Final occupancy:  22  11

 !RHF STATE  1.1 Energy              -347.924328765000
 Nuclear energy                       412.12382619
 One-electron energy                -1286.02285241
 Two-electron energy                  525.97469745
 Virial quotient                       -1.00123972
 !RHF STATE  1.1 Dipole moment          0.05777015     0.13599798     0.00000000
 Dipole moment /Debye                   0.14682746     0.34564974     0.00000000

 Orbital energies:

         1.1          2.1          3.1          4.1          5.1          6.1          7.1          8.1          9.1         10.1
    -11.234849   -11.230047   -11.225939   -11.225489   -11.223863   -11.220358   -11.212584    -1.152310    -1.074103    -1.011158

        11.1         12.1         13.1         14.1         15.1         16.1         17.1         18.1         19.1         20.1
     -0.921508    -0.820932    -0.783775    -0.691325    -0.632371    -0.588085    -0.565496    -0.524833    -0.497199    -0.475514

        21.1         22.1         23.1         24.1
     -0.464212    -0.321947     0.131252     0.140346

         1.2          2.2          3.2          4.2          5.2          6.2          7.2          8.2          9.2         10.2
    -11.229877   -11.225611    -1.009375    -0.823103    -0.646332    -0.605853    -0.580487    -0.529131    -0.487299    -0.468950

        11.2         12.2         13.2
     -0.332814     0.129385     0.161460


 HOMO     22.1    -0.321947 =      -8.7606eV
 LUMO     12.2     0.129385 =       3.5207eV
 LUMO-HOMO         0.451332 =      12.2814eV


 **********************************************************************************************************************************
 DATASETS  * FILE   NREC   LENGTH (MB)   RECORD NAMES
              1      18       33.98       500      610      700      900      950      970     1001      129      960     1100   
                                          VAR    BASINP    GEOM    SYMINP    ZMAT    AOBASIS   BASIS     P2S    ABASIS      S 
                                         1400     1410     1200     1210     1080     1600     1650     1700   
                                           T        V       H0       H01     AOSYM     SMH    MOLCAS    OPER   

              2       6        8.39       700     1000      520     2100     1001     2101   
                                         GEOM     BASIS   MCVARS     RHF     BASIS     RHF  

 PROGRAMS   *        TOTAL    HF-SCF       INT   CCSD(T)    HF-SCF       INT
 CPU TIMES  *       189.04     11.50     90.41     83.79      0.72      2.51
 REAL TIME  *       254.60 SEC
 DISK USED  *       612.35 MB (local),       28.57 GB (total)
 SF USED    *       548.16 MB
 GA USED    *         0.00 MB       (max)       0.00 MB       (current)
 **********************************************************************************************************************************


 PROGRAM * CCSD (Closed-shell coupled cluster)     Authors: C. Hampel, H.-J. Werner, 1991, M. Deegan, P.J. Knowles, 1992


 Convergence thresholds:  THRVAR = 1.00D-08  THRDEN = 1.00D-06

 CCSD(T)     terms to be evaluated (factor= 1.000)


 Number of core orbitals:           9 (   7   2 )
 Number of closed-shell orbitals:  24 (  15   9 )
 Number of external orbitals:     405 ( 228 177 )

 Molecular orbitals read from record     2101.2  Type=RHF/CANONICAL (state 1.1)

 Number of N-1 electron functions:              24
 Number of N-2 electron functions:             300
 Number of singly external CSFs:              5013
 Number of doubly external CSFs:          23647869
 Total number of CSFs:                    23652883

 Length of J-op  integral file:               0.00 MB
 Length of K-op  integral file:               6.75 MB
 Length of 3-ext integral record:             0.00 MB

 For full I/O caching in triples, increase memory by 634.32 Mwords to 934.37 Mwords.
  2-fold multipass in aabb transformation; to avoid, increase memory by 102.34 Mwords.

 Integral transformation finished. Total CPU:  92.13 sec, npass=  1  Memory used: 242.59 MW

 Reference energy:                   -347.92432877

 MP2 singlet pair energy:              -0.94057863
 MP2 triplet pair energy:              -0.53679105
 MP2 correlation energy:               -1.47736968
 MP2 total energy:                   -349.40169844

 SCS-MP2 correlation energy:           -1.46269767   (PS=  1.200000  PT=  0.333333)
 SCS-MP2 total energy:               -349.38702644

 ITER.      SQ.NORM     CORR.ENERGY   TOTAL ENERGY   ENERGY CHANGE        DEN1      VAR(S)    VAR(P)  DIIS     TIME  TIME/IT
   1      1.49885725    -1.52424563  -349.44857439    -0.04687595    -0.00807254  0.54D-02  0.10D-01  1  1   125.37    39.89
   2      1.53327619    -1.52951016  -349.45383892    -0.00526453    -0.03559716  0.81D-04  0.12D-02  2  2   162.23    39.50
   3      1.54490890    -1.52943788  -349.45376664     0.00007228    -0.00668702  0.30D-04  0.92D-04  3  3   197.98    38.99
   4      1.54896431    -1.52956470  -349.45389347    -0.00012682    -0.00146665  0.23D-05  0.13D-04  4  4   233.42    38.72
   5      1.55028914    -1.52960893  -349.45393770    -0.00004423    -0.00034987  0.31D-06  0.16D-05  5  5   272.89    39.43
   6      1.55062813    -1.52959843  -349.45392719     0.00001051    -0.00005268  0.44D-07  0.13D-06  6  6   309.14    39.36
   7      1.55068199    -1.52959869  -349.45392746    -0.00000027    -0.00000322  0.11D-07  0.13D-07  6  2   345.55    39.32
   8      1.55069524    -1.52959850  -349.45392726     0.00000019    -0.00000194  0.31D-08  0.14D-08  6  1   381.98    39.30

 Norm of t1 vector:      0.09398666      S-energy:     0.00000196      T1 diagnostic:  0.00959247
                                                                       D1 diagnostic:  0.02752329

 Doubles amplitudes (print threshold =  0.500E-01):

         I         J         SYM. A    SYM. B    A         B      T(IJ, AB)

        15        15         1         1         1         1     -0.05133532
        24        24         2         2         1         1     -0.07670136


 Total CPU time for triples:   1309.04 sec


 RESULTS
 =======

  Reference energy                   -347.924328765003
  CCSD singlet pair energy             -1.043486720005
  CCSD triplet pair energy             -0.486113740585
  CCSD correlation energy              -1.529598498061

  Triples (T) contribution             -0.075344105214
  Total correlation energy             -1.604942603275

  CCSD total energy                  -349.453927263065
  CCSD[T] energy                     -349.530715094415
  CCSD-T energy                      -349.528612693552
 !CCSD(T) total energy               -349.529271368278

 Timing summary (sec):

 STEP                 CPU(USER)    SYS     CPU(TOT)    WALL
 Transformation         92.37      8.80    101.17    262.93
 CCSD iterations       289.86     17.05    306.91    314.81
 Triples              1309.04     27.34   1336.38   1343.86

 Program statistics:

 Available memory in ccsd:               299997652
 Min. memory needed in ccsd:              54420391
 Max. memory used in ccsd:                76805512
 Max. memory used in cckext:              70578875 ( 8 integral passes)



 **********************************************************************************************************************************
 DATASETS  * FILE   NREC   LENGTH (MB)   RECORD NAMES
              1      19     3581.60       500      610      700      900      950      970     1001      129      960     1100   
                                          VAR    BASINP    GEOM    SYMINP    ZMAT    AOBASIS   BASIS     P2S    ABASIS      S 
                                         1400     1410     1200     1210     1080     1600     1650     1700     1380   
                                           T        V       H0       H01     AOSYM     SMH    MOLCAS    OPER     JKOP   

              2       6        8.39       700     1000      520     2100     1001     2101   
                                         GEOM     BASIS   MCVARS     RHF     BASIS     RHF  

 PROGRAMS   *        TOTAL   CCSD(T)    HF-SCF       INT   CCSD(T)    HF-SCF       INT
 CPU TIMES  *      1880.33   1691.29     11.50     90.41     83.79      0.72      2.51
 REAL TIME  *      2177.09 SEC
 DISK USED  *         5.96 GB (local),       57.15 GB (total)
 SF USED    *         5.61 GB
 GA USED    *         0.00 MB       (max)       0.00 MB       (current)
 **********************************************************************************************************************************
 SETTING BASIS          =    VQZ


 Recomputing integrals since basis changed


 Using spherical harmonics

 Library entry C      S cc-pVQZ              selected for orbital group  1
 Library entry C      P cc-pVQZ              selected for orbital group  1
 Library entry C      D cc-pVQZ              selected for orbital group  1
 Library entry C      F cc-pVQZ              selected for orbital group  1
 Library entry C      G cc-pVQZ              selected for orbital group  1
 Library entry H      S cc-pVQZ              selected for orbital group  2
 Library entry H      P cc-pVQZ              selected for orbital group  2
 Library entry H      D cc-pVQZ              selected for orbital group  2
 Library entry H      F cc-pVQZ              selected for orbital group  2


 PROGRAM * SEWARD (Integral evaluation for generally contracted gaussian basis sets)     Author: Roland Lindh, 1990

 Geometry written to block  1 of record 700


 Point group  Cs  



 ATOMIC COORDINATES

 NR  ATOM    CHARGE       X              Y              Z

   1  C       6.00    2.190459030    6.679824692    0.000000000
   2  C       6.00    2.074186071    3.798517696    0.000000000
   3  C       6.00   -0.652131258    2.811441932    0.000000000
   4  C       6.00   -0.760338865   -0.035141347    0.000000000
   5  C       6.00   -0.758745826   -1.385418693    2.266163348
   6  C       6.00   -0.758745826   -1.385418693   -2.266163348
   7  C       6.00   -0.758745826   -4.013863326    2.271401669
   8  C       6.00   -0.758745826   -4.013863326   -2.271401669
   9  C       6.00   -0.759031175   -5.336699959    0.000000000
  10  H       1.00    4.139235316    7.356014053    0.000000000
  11  H       1.00    1.251873638    7.454538704    1.669091151
  12  H       1.00    1.251873638    7.454538704   -1.669091151
  13  H       1.00    3.059521398    3.043899032    1.653799487
  14  H       1.00    3.059521398    3.043899032   -1.653799487
  15  H       1.00   -1.641656107    3.548694013   -1.659264575
  16  H       1.00   -1.641656107    3.548694013    1.659264575
  17  H       1.00   -0.764713581   -0.361243825    4.043964774
  18  H       1.00   -0.764713581   -0.361243825   -4.043964774
  19  H       1.00   -0.766461578   -5.029959615    4.049762453
  20  H       1.00   -0.766461578   -5.029959615   -4.049762453
  21  H       1.00   -0.765333411   -7.384136957    0.000000000

 Bond lengths in Bohr (Angstrom)

  1- 2  2.883652095   1-10  2.062755697   1-11  2.065669288   1-12  2.065669288   2- 3  2.899504223
       ( 1.525962973)       ( 1.091563307)       ( 1.093105113)       ( 1.093105113)       ( 1.534351558)

  2-13  2.067701085   2-14  2.067701085   3- 4  2.848639192   3-15  2.067815028   3-16  2.067815028
       ( 1.094180293)       ( 1.094180293)       ( 1.507434943)       ( 1.094240589)       ( 1.094240589)

  4- 5  2.637943853   4- 6  2.637943853   5- 7  2.628449853   5-17  2.051718227   6- 8  2.628449853
       ( 1.395939770)       ( 1.395939770)       ( 1.390915762)       ( 1.085722529)       ( 1.390915762)

  6-18  2.051718227   7- 9  2.628528558   7-19  2.048189025   8- 9  2.628528558   8-20  2.048189025
       ( 1.085722529)       ( 1.390957411)       ( 1.083854955)       ( 1.390957411)       ( 1.083854955)

  9-21  2.047446697
       ( 1.083462133)

 Bond angles

  1- 2- 3  112.21389637   1- 2-13  110.20889921   1- 2-14  110.20889921   2- 1-10  111.44670309

  2- 1-11  110.88029130   2- 1-12  110.88029130   2- 3- 4  112.07996760   2- 3-15  109.18249068

  2- 3-16  109.18249068   3- 2-13  108.89481083   3- 2-14  108.89481083   3- 4- 5  120.76212833

  3- 4- 6  120.76212833   4- 3-15  109.76127341   4- 3-16  109.76127341   4- 5- 7  120.90248027

  4- 5-17  119.26559860   4- 6- 8  120.90248027   4- 6-18  119.26559860   5- 4- 6  118.42336517

  5- 7- 9  120.10181314   5- 7-19  119.85616593   6- 8- 9  120.10181314   6- 8-20  119.85616593

  7- 5-17  119.83151885   7- 9- 8  119.56799888   7- 9-21  120.21586386   8- 6-18  119.83151885

  8- 9-21  120.21586386   9- 7-19  120.04152500   9- 8-20  120.04152500  10- 1-11  107.83786312

 10- 1-12  107.83786312  11- 1-12  107.80482663  13- 2-14  106.22683175  15- 3-16  106.72442524

 NUCLEAR CHARGE:                   66
 NUMBER OF PRIMITIVE AOS:        1191
 NUMBER OF SYMMETRY AOS:          996
 NUMBER OF CONTRACTIONS:          855   (  475A'  +  380A"  )
 NUMBER OF CORE ORBITALS:           9   (    7A'  +    2A"  )
 NUMBER OF VALENCE ORBITALS:       48   (   30A'  +   18A"  )


 NUCLEAR REPULSION ENERGY  412.12382619


 Eigenvalues of metric

         1 0.464E-05 0.294E-04 0.383E-04 0.565E-04 0.854E-04 0.897E-04 0.961E-04 0.109E-03
         2 0.177E-04 0.334E-04 0.673E-04 0.854E-04 0.103E-03 0.118E-03 0.144E-03 0.159E-03


 Contracted 2-electron integrals neglected if value below      1.0D-12
 AO integral compression algorithm  1   Integral accuracy      1.0D-12

     71446.561 MB (compressed) written to integral file ( 29.1%)

     Node minimum: 8597.275 MB, node maximum: 9168.749 MB


 NUMBER OF SORTED TWO-ELECTRON INTEGRALS: 4194927776.     BUFFER LENGTH:  32768
 NUMBER OF SEGMENTS: 132  SEGMENT LENGTH:   31999400      RECORD LENGTH: 131072

 Memory used in sort:      32.16 MW

 SORT1 READ 30651105083. AND WROTE  2340164023. INTEGRALS IN  26848 RECORDS. CPU TIME:  2063.78 SEC, REAL TIME:  2225.88 SEC
 SORT2 READ 18725902966. AND WROTE 33561468520. INTEGRALS IN 273240 RECORDS. CPU TIME:   635.14 SEC, REAL TIME:  4605.08 SEC

 Node minimum:  4194904597.  Node maximum:  4195313288. integrals

 OPERATOR DM      FOR CENTER  0  COORDINATES:    0.000000    0.000000    0.000000


 **********************************************************************************************************************************
 DATASETS  * FILE   NREC   LENGTH (MB)   RECORD NAMES
              1      18       43.90       500      610      700      900      950      970     1002      129      960     1100   
                                          VAR    BASINP    GEOM    SYMINP    ZMAT    AOBASIS   BASIS     P2S    ABASIS      S 
                                         1400     1410     1200     1210     1080     1600     1650     1700   
                                           T        V       H0       H01     AOSYM     SMH    MOLCAS    OPER   

              2       7       10.52       700     1000      520     2100     1001     2101     1002   
                                         GEOM     BASIS   MCVARS     RHF     BASIS     RHF     BASIS   

 PROGRAMS   *        TOTAL       INT   CCSD(T)    HF-SCF       INT   CCSD(T)    HF-SCF       INT
 CPU TIMES  *      4705.83   2825.33   1691.29     11.50     90.41     83.79      0.72      2.51
 REAL TIME  *      9494.38 SEC
 DISK USED  *         5.96 GB (local),      330.54 GB (total)
 SF USED    *         5.61 GB
 GA USED    *         0.00 MB       (max)       0.00 MB       (current)
 **********************************************************************************************************************************


 PROGRAM * RHF-SCF (CLOSED SHELL)       Authors: W. Meyer, H.-J. Werner


 NUMBER OF ELECTRONS:      33+   33-
 CONVERGENCE THRESHOLDS:    1.00E-05 (Density)    1.00E-07 (Energy)
 MAX. NUMBER OF ITERATIONS:       60
 INTERPOLATION TYPE:            DIIS
 INTERPOLATION STEPS:              2 (START)      1 (STEP)
 LEVEL SHIFTS:                  0.00 (CLOSED)  0.00 (OPEN) 



 Molecular orbitals read from record     2101.2  Type=RHF/CANONICAL (state 1.1)

 Present basis size:      475  380
 Previous basis size:     250  188
 Previous occupation:      22   11
 Previous closed-shells:   22   11
 Previous core-orbitals:    7    2
 Present occupation:       22   11
 Present closed-shells:    22   11
 Present core-orbitals:     7    2
 Wavefunction symmetry:    1   Singlet 

 Orbital overlap <old|new>:  < 1.1| 1.1> = 0.999999   < 2.1| 2.1> = 0.999999   < 3.1| 3.1> = 0.999999   < 4.1| 4.1> = 0.999999
                             < 5.1| 5.1> = 0.999999   < 6.1| 6.1> = 0.999999   < 7.1| 7.1> = 0.999999   < 1.2| 1.2> = 0.999999
                             < 2.2| 2.2> = 0.999999   < 8.1| 8.1> = 0.999992   < 9.1| 9.1> = 0.999996   <10.1|10.1> = 0.999995
                             <11.1|11.1> = 0.999995   <12.1|12.1> = 0.999994   <13.1|13.1> = 0.999993   <14.1|14.1> = 0.999990
                             <15.1|15.1> = 0.999992   <16.1|16.1> = 0.999988   <17.1|17.1> = 0.999986   <18.1|18.1> = 0.999984
                             <19.1|19.1> = 0.999976   <20.1|20.1> = 0.999979   <21.1|21.1> = 0.999982   <22.1|22.1> = 0.999962
                             < 3.2| 3.2> = 0.999994   < 4.2| 4.2> = 0.999993   < 5.2| 5.2> = 0.999988   < 6.2| 6.2> = 0.999986
                             < 7.2| 7.2> = 0.999988   < 8.2| 8.2> = 0.999988   < 9.2| 9.2> = 0.999986   <10.2|10.2> = 0.999988
                             <11.2|11.2> = 0.999953


 Molecular orbital dump at record        2102.2

 ITERATION    DDIFF          GRAD             ENERGY        2-EL.EN.            DIPOLE MOMENTS         DIIS   ORB.
    1      0.000D+00      0.000D+00      -347.94177088   1051.944168    0.05808    0.13744    0.00000    0    start
    2      0.000D+00      0.105D-02      -347.94571881   1051.984506    0.06054    0.14357    0.00000    1    diag
    3      0.268D-02      0.565D-04      -347.94574528   1051.931438    0.06101    0.14870    0.00000    2    diag
    4      0.269D-03      0.594D-05      -347.94574611   1051.954299    0.06146    0.14855    0.00000    3    diag
    5      0.315D-04      0.239D-05      -347.94574623   1051.944785    0.06154    0.14969    0.00000    4    diag
    6      0.481D-05      0.801D-06      -347.94574625   1051.945842    0.06157    0.14952    0.00000    5    diag
    7      0.196D-05      0.303D-06      -347.94574625   1051.946038    0.06159    0.14974    0.00000    0    orth

 Final occupancy:  22  11

 !RHF STATE  1.1 Energy              -347.945746252259
 Nuclear energy                       412.12382619
 One-electron energy                -1286.04259123
 Two-electron energy                  525.97301879
 Virial quotient                       -1.00101787
 !RHF STATE  1.1 Dipole moment          0.06159262     0.14973807     0.00000000
 Dipole moment /Debye                   0.15654257     0.38057129     0.00000000

 Orbital energies:

         1.1          2.1          3.1          4.1          5.1          6.1          7.1          8.1          9.1         10.1
    -11.234551   -11.230027   -11.225859   -11.225396   -11.223192   -11.219555   -11.211837    -1.152946    -1.074330    -1.011512

        11.1         12.1         13.1         14.1         15.1         16.1         17.1         18.1         19.1         20.1
     -0.921804    -0.821278    -0.784303    -0.692131    -0.632990    -0.588678    -0.566024    -0.525496    -0.497857    -0.476098

        21.1         22.1         23.1         24.1
     -0.464856    -0.322737     0.110388     0.126232

         1.2          2.2          3.2          4.2          5.2          6.2          7.2          8.2          9.2         10.2
    -11.229858   -11.225518    -1.010019    -0.823777    -0.646962    -0.606492    -0.581346    -0.529629    -0.488074    -0.469546

        11.2         12.2         13.2
     -0.333597     0.124346     0.131225


 HOMO     22.1    -0.322737 =      -8.7821eV
 LUMO     23.1     0.110388 =       3.0038eV
 LUMO-HOMO         0.433126 =      11.7859eV


 **********************************************************************************************************************************
 DATASETS  * FILE   NREC   LENGTH (MB)   RECORD NAMES
              1      18       43.94       500      610      700      900      950      970     1002      129      960     1100   
                                          VAR    BASINP    GEOM    SYMINP    ZMAT    AOBASIS   BASIS     P2S    ABASIS      S 
                                         1400     1410     1200     1210     1080     1600     1650     1700   
                                           T        V       H0       H01     AOSYM     SMH    MOLCAS    OPER   

              2       8       20.43       700     1000      520     2100     1001     2101     1002     2102   
                                         GEOM     BASIS   MCVARS     RHF     BASIS     RHF     BASIS     RHF  

 PROGRAMS   *        TOTAL    HF-SCF       INT   CCSD(T)    HF-SCF       INT   CCSD(T)    HF-SCF       INT
 CPU TIMES  *      4912.57    206.71   2825.33   1691.29     11.50     90.41     83.79      0.72      2.51
 REAL TIME  *     10218.61 SEC
 DISK USED  *         5.96 GB (local),      330.54 GB (total)
 SF USED    *         5.61 GB
 GA USED    *         0.00 MB       (max)       0.00 MB       (current)
 **********************************************************************************************************************************
 Molecular orbitals read from record     2102.2  Type=RHF/CANONICAL (state 1.1)
 Occupation numbers read from record     2102.2  Type=RHF/RHF (state 1.1)
 Orbital energies read from record       2102.2  Type=RHF/CANONICAL (state 1.1)
 Redundancy group numbers read from rec  2102.2  Type=RHF/RHF (state 1.1)

 HF/cc-pVQZ energy=   -347.945746252259

          HF-SCF         CCSD(T)          HF-SCF         CCSD(T)          HF-SCF
   -347.94574625   -349.52927137   -347.92432877   -349.17915023   -347.83622405
 **********************************************************************************************************************************
 Molpro calculation terminated
